smp-n2.sam.pitt.edu 10.201.3
Q-Chem Developer Version! Running on 10.201.3.*
                  Welcome to Q-Chem
     A Quantum Leap Into The Future Of Chemistry


 Q-Chem 4.4, Q-Chem, Inc., Pleasanton, CA (2016)

 Y. Shao,  Z. Gan,  E. Epifanovsky,  A. T. B. Gilbert,  M. Wormit,
 J. Kussmann,  A. W. Lange,  A. Behn,  J. Deng,  X. Feng,  D. Ghosh,
 M. Goldey,  P. R. Horn,  L. D. Jacobson,  I. Kaliman,  F.Rob,
 R. Z. Khaliullin,  T. Kus,  A. Landau,  J. Liu,  E. I. Proynov,  Y. M. Rhee,
 R. M. Richard,  M. A. Rohrdanz,  R. P. Steele,  E. J. Sundstrom,
 H. L. Woodcock III,  P. M. Zimmerman,  D. Zuev,  B. Albrecht,  E. Alguire,
 B. Austin,  S. A. Baeppler,  G. J. O. Beran,  Y. A. Bernard,  E. Berquist,
 K. Brandhorst,  K. B. Bravaya,  S. T. Brown,  D. Casanova,  C.-M. Chang,
 Y. Chen,  S. H. Chien,  K. D. Closser,  M. P. Coons,  D. L. Crittenden,
 S. Dasgupta,  M. Diedenhofen,  R. A. DiStasio Jr.,  H. Do,  A. D. Dutoi,
 R. G. Edgar,  P.-T. Fang,  S. Fatehi,  Q. Feng,  L. Fusti-Molnar,
 A. Ghysels,  A. Golubeva-Zadorozhnaya,  J. Gomes,  A. Gunina,
 M. W. D. Hanson-Heine,  P. H. P. Harbach,  A. W. Hauser,  E. G. Hohenstein,
 Z. C. Holden,  K. Hui,  T.-C. Jagau,  H. Ji,  B. Kaduk,  K. Khistyaev,
 Jaehoon Kim,  Jihan Kim,  R. A. King,  P. Klunzinger,  D. Kosenkov,
 T. Kowalczyk,  C. M. Krauter,  A. Kunitsa,  K. U. Lao,  A. Laurent,
 K. V. Lawler,  D. Lefrancois,  S. Lehtola,  S. V. Levchenko,  C. Y. Lin,
 Y.-S. Lin,  F. Liu,  E. Livshits,  R. C. Lochan,  A. Luenser,  P. Manohar,
 S. F. Manzer,  S.-P. Mao,  Y. Mao,  N. Mardirossian,  A. V. Marenich,
 L. A. Martinez-Martinez,  S. A. Maurer,  N. J. Mayhall,  J.-M. Mewes,
 A. F. Morrison,  K. Nanda,  C. M. Oana,  R. Olivares-Amaya,  D. P. O'Neill,
 J. A. Parkhill,  T. M. Perrine,  R. Peverati,  P. A. Pieniazek,  F. Plasser,
 A. Prociuk,  D. R. Rehn,  E. Rosta,  N. J. Russ,  N. Sergueev,
 S. M. Sharada,  S. Sharma,  D. W. Small,  A. Sodt,  T. Stauch,  T. Stein,
 D. Stuck,  Y.-C. Su,  A. J. W. Thom,  T. Tsuchimochi,  L. Vogt,  O. Vydrov,
 T. Wang,  M. A. Watson,  J. Wenzel,  A. White,  C. F. Williams,
 V. Vanovschi,  S. Yeganeh,  S. R. Yost,  Z.-Q. You,  I. Y. Zhang,  X. Zhang,
 Y. Zhao,  B. R. Brooks,  G. K. L. Chan,  D. M. Chipman,  C. J. Cramer,
 W. A. Goddard III,  M. S. Gordon,  W. J. Hehre,  A. Klamt,
 H. F. Schaefer III,  M. W. Schmidt,  C. D. Sherrill,  D. G. Truhlar,
 A. Warshel,  X. Xu,  A. Aspuru-Guzik,  R. Baer,  A. T. Bell,  N. A. Besley,
 J.-D. Chai,  A. Dreuw,  B. D. Dunietz,  T. R. Furlani,  S. R. Gwaltney,
 C.-P. Hsu,  Y. Jung,  J. Kong,  D. S. Lambrecht,  W. Liang,  C. Ochsenfeld,
 V. A. Rassolov,  L. V. Slipchenko,  J. E. Subotnik,  T. Van Voorhis,
 J. M. Herbert,  A. I. Krylov,  P. M. W. Gill,  M. Head-Gordon

 Contributors to earlier versions of Q-Chem not listed above:
 R. D. Adamson,  J. Baker,  E. F. C. Byrd,  A. K. Chakraborty,  C.-L. Cheng,
 H. Dachsel,  R. J. Doerksen,  G. Hawkins,  A. Heyden,  S. Hirata,
 G. Kedziora,  F. J. Keil,  C. Kelley,  P. P. Korambath,  W. Kurlancheek,
 A. M. Lee,  M. S. Lee,  D. Liotard,  I. Lotan,  P. E. Maslen,  N. Nair,
 D. Neuhauser,  R. Olson,  B. Peters,  J. Ritchie,  N. E. Schultz,
 N. Shenvi,  A. C. Simmonett,  K. S. Thanthiriwatte,  Q. Wu,  W. Zhang

 Please cite Q-Chem as follows:
 Y. Shao et al., Mol. Phys. 113, 184-215 (2015)
 DOI: 10.1080/00268976.2014.952696

 Q-Chem 4.4.1 for Intel X86 EM64T Linux

 Parts of Q-Chem use Armadillo 5.200.1 (Boston Tea Smuggler).
 http://arma.sourceforge.net/

 Q-Chem begins on Tue Nov 22 12:35:50 2016

Host: smp-n2.sam.pitt.edu
0

     Scratch files written to /scratch/slurm-761/qchem19728//

Checking the input file for inconsistencies... 	...done.

--------------------------------------------------------------
User input:
--------------------------------------------------------------
$rem
 jobtype polarizability
 method hf
 basis gen
 purecart 1111
 scf_guess gwh
 scf_convergence 9
 thresh 12
 symmetry false
 sym_ignore true
 scf_print_frgm false
 moprop 2
 moprop_conv_1st 8
 frgm_method stoll
 frgm_lpcorr 0
$end

$response
solver linear
maxiter 1000
$end

$rem_frgm
moprop 0
$end

$molecule
-1 1
--
0 1
N         -0.06998        0.33220        0.28213
C          1.37280        0.09707       -0.01296
C          2.09693       -0.05236        1.36827
O          3.13825       -0.65637        1.53802
C          1.95297        1.31361       -0.79560
H          1.84427        2.20506       -0.18016
H          1.34559        1.45949       -1.68857
C          3.40536        1.12706       -1.19181
C          4.48452        1.62350       -0.55989
N          5.65091        1.23793       -1.22846
H          6.60093        1.41124       -0.90286
C          5.29216        0.43563       -2.31316
C          3.89420        0.35580       -2.32633
C          3.26592       -0.38326       -3.34313
H          2.18643       -0.45771       -3.38159
C          4.03818       -1.00875       -4.28710
H          3.56969       -1.58248       -5.07556
C          5.44452       -0.91949       -4.25190
H          6.02299       -1.42780       -5.01300
C          6.08696       -0.20240       -3.27677
H          7.16567       -0.12878       -3.24587
H          4.54576        2.24253        0.32540
H         -0.51598        0.74789       -0.54877
H          1.54205       -0.81439       -0.59355
H         -0.53023       -0.58240        0.40845
O          1.45758        0.59969        2.40935
H          0.59900        0.88424        2.00478
--
-1 1
Br         2.94292        3.58090       -4.84908
$end


$basis
****
H     0
S   3   1.00
     13.0107010              0.19682158E-01
      1.9622572              0.13796524
      0.44453796             0.47831935
S   1   1.00
      0.12194962             1.0000000
P   1   1.00
      0.8000000              1.0000000
****
C     0
S   5   1.00
   1238.4016938              0.54568832082E-02
    186.29004992             0.40638409211E-01
     42.251176346            0.18025593888
     11.676557932            0.46315121755
      3.5930506482           0.44087173314
S   1   1.00
      0.40245147363          1.0000000
S   1   1.00
      0.13090182668          1.0000000
P   3   1.00
      9.4680970621           0.38387871728E-01
      2.0103545142           0.21117025112
      0.54771004707          0.51328172114
P   1   1.00
      0.15268613795          1.0000000
D   1   1.00
      0.8000000              1.0000000
****
N     0
S   5   1.00
   1712.8415853             -0.53934125305E-02
    257.64812677            -0.40221581118E-01
     58.458245853           -0.17931144990
     16.198367905           -0.46376317823
      5.0052600809          -0.44171422662
S   1   1.00
      0.58731856571          1.0000000
S   1   1.00
      0.18764592253          1.0000000
P   3   1.00
     13.571470233           -0.40072398852E-01
      2.9257372874          -0.21807045028
      0.79927750754         -0.51294466049
P   1   1.00
      0.21954348034          1.0000000
D   1   1.00
      1.0000000              1.0000000
****
O     0
S   5   1.00
   2266.1767785             -0.53431809926E-02
    340.87010191            -0.39890039230E-01
     77.363135167           -0.17853911985
     21.479644940           -0.46427684959
      6.6589433124          -0.44309745172
S   1   1.00
      0.80975975668          1.0000000
S   1   1.00
      0.25530772234          1.0000000
P   3   1.00
     17.721504317            0.43394573193E-01
      3.8635505440           0.23094120765
      1.0480920883           0.51375311064
P   1   1.00
      0.27641544411          1.0000000
D   1   1.00
      1.2000000              1.0000000
****
F     0
S   5   1.00
   2894.8325990             -0.53408255515E-02
    435.41939120            -0.39904258866E-01
     98.843328866           -0.17912768038
     27.485198001           -0.46758090825
      8.5405498171          -0.44653131020
S   1   1.00
      1.0654578038           1.0000000
S   1   1.00
      0.33247346748          1.0000000
P   3   1.00
     22.696633924           -0.45212874436E-01
      4.9872339257          -0.23754317067
      1.3491613954          -0.51287353587
P   1   1.00
      0.34829881977          1.0000000
D   1   1.00
      1.4000000              1.0000000
****
Cl     0
S   5   1.00
  10449.8275660              0.19708362484E-02
   1571.7365221              0.14754727977E-01
    357.12065523             0.66679112875E-01
    100.25185935             0.17228924084
     30.812727554            0.15883786100
S   3   1.00
     51.923789434           -0.10009298909
      5.7045760975           0.60841752753
      2.3508376809           0.54352153355
S   1   1.00
      0.44605124672          1.0000000
S   1   1.00
      0.16848856190          1.0000000
P   5   1.00
    307.66790569            -0.87801484118E-02
     72.102015515           -0.63563355471E-01
     22.532680262           -0.24016428276
      7.8991765444          -0.47798866557
      2.8767268321          -0.38515850005
P   1   1.00
      0.77459363955          1.0000000
P   1   1.00
      0.21037699698          1.0000000
D   1   1.00
      0.6500000              1.0000000
****
Br     0
S   6   1.00
 113286.3877600              0.14283037779E-02
  17009.6263030              0.10950417496E-01
   3870.1842567              0.54421006604E-01
   1093.0357227              0.19047907695
    356.39721797             0.39024642737
    123.12539643             0.30814432514
S   3   1.00
    236.74084007            -0.11228065671
     28.468661070            0.64775962312
     11.883443722            0.44235575986
S   3   1.00
     21.269633312           -0.22642576323
      3.6129226841           0.73823712008
      1.6626648969           0.42683868694
S   1   1.00
      0.34823793232          1.0000000
S   1   1.00
      0.13019031394          1.0000000
P   5   1.00
   1560.2801881              0.87166669072E-02
    368.47859205             0.66243637420E-01
    117.22978849             0.26495610385
     42.648909248            0.53839160587
     16.087225096            0.36579387888
P   3   1.00
      8.6352810058           0.34248787366
      3.5613665502           0.57500678213
      1.5292626609           0.24330394172
P   1   1.00
      0.53064294848          1.0000000
P   1   1.00
      0.15702758965          1.0000000
D   4   1.00
    104.85518642             0.22650147581D-01
     30.281143688            0.13455483230
     10.651394267            0.36474454537
      3.8699456233           0.49044587056
D   1   1.00
      1.3240876762           1.0000000
D   1   1.00
      0.3890000              1.0000000
****
$end
--------------------------------------------------------------
 ----------------------------------------------------------------
             Standard Nuclear Orientation (Angstroms)
    I     Atom           X                Y                Z
 ----------------------------------------------------------------
    1      N      -0.0699800000     0.3322000000     0.2821300000
    2      C       1.3728000000     0.0970700000    -0.0129600000
    3      C       2.0969300000    -0.0523600000     1.3682700000
    4      O       3.1382500000    -0.6563700000     1.5380200000
    5      C       1.9529700000     1.3136100000    -0.7956000000
    6      H       1.8442700000     2.2050600000    -0.1801600000
    7      H       1.3455900000     1.4594900000    -1.6885700000
    8      C       3.4053600000     1.1270600000    -1.1918100000
    9      C       4.4845200000     1.6235000000    -0.5598900000
   10      N       5.6509100000     1.2379300000    -1.2284600000
   11      H       6.6009300000     1.4112400000    -0.9028600000
   12      C       5.2921600000     0.4356300000    -2.3131600000
   13      C       3.8942000000     0.3558000000    -2.3263300000
   14      C       3.2659200000    -0.3832600000    -3.3431300000
   15      H       2.1864300000    -0.4577100000    -3.3815900000
   16      C       4.0381800000    -1.0087500000    -4.2871000000
   17      H       3.5696900000    -1.5824800000    -5.0755600000
   18      C       5.4445200000    -0.9194900000    -4.2519000000
   19      H       6.0229900000    -1.4278000000    -5.0130000000
   20      C       6.0869600000    -0.2024000000    -3.2767700000
   21      H       7.1656700000    -0.1287800000    -3.2458700000
   22      H       4.5457600000     2.2425300000     0.3254000000
   23      H      -0.5159800000     0.7478900000    -0.5487700000
   24      H       1.5420500000    -0.8143900000    -0.5935500000
   25      H      -0.5302300000    -0.5824000000     0.4084500000
   26      O       1.4575800000     0.5996900000     2.4093500000
   27      H       0.5990000000     0.8842400000     2.0047800000
   28      Br      2.9429200000     3.5809000000    -4.8490800000
 ----------------------------------------------------------------
 Nuclear Repulsion Energy =  1326.1240457486 hartrees
 There are       72 alpha and       72 beta electrons
 Requested basis set is non-standard
 There are 138 shells and 302 basis functions

 Total QAlloc Memory Limit   2000 MB
 Mega-Array Size        61 MB
 MEM_STATIC part        62 MB
 A cutoff of  1.0D-12 yielded   7437 shell pairs
 There are     33597 function pairs (     37292 Cartesian)

 -------------------------------------------------------
 OpenMP Integral Computing Module
 Release: version 1.0, May 2013, Q-Chem Inc. Pittsburgh
 -------------------------------------------------------
 Integral Job Info:
 Integral job number is                      11
 Integral operator is                         1
 short-range coefficients                     0
 long-range coefficients              100000000
 Omega coefficients                           0
 if combine SR and LR in K                    0
 Integral screening is                        0
 Integral computing path is                   2
 max size of driver memory is            800000
 size of driver memory is                593474
 size of scratch memory is             29533545
 max col of scratch BK array               1296
 max len of scratch array in speh3          155
 max len of scratch index in speh4           18
 max int batch size is                      520
 min int batch size is                       52
 fixed nKL is                                45
 max L of basis functions is                  2
 order of int derivative is                   0
 number of shells is                        138
 number of basis is                         320
 number of cartesian basis is               320
 number of contracted shell pairs          7437
 number of primitive shell pairs          18365
 maxK2 (contraction) of shell pair           36
 max number of K2 of shell pair               1
 max number of CS2 of shell pair           1312
 max number of PS2 of shell pair           3035
 mem total for path MDJ                   92344
 -------------------------------------------------------
 Smallest overlap matrix eigenvalue = 2.49E-04

 Scale SEOQF with 1.000000e-02/1.000000e-01/1.000000e-01

 Standard Electronic Orientation quadrupole field applied
 Nucleus-field energy     =    -0.0000001073 hartrees
 Guess MOs from converged MOs on fragments

-----------------------------------------------------------------
 SCF on fragment 1 out of 2
/ihome/dlambrecht/erb74/opt/apps/qchem/qchem_branches_libresponse/bin/xr.csh  /scratch/slurm-761/qchem19728/Frg1.input  /dev/null  Frg1
/ihome/dlambrecht/erb74/opt/apps/qchem/qchem_branches_libresponse/bin/xr.csh /scratch/slurm-761/qchem19728/Frg1.input /dev/null Frg1
/ihome/dlambrecht/erb74/opt/apps/qchem/qchem_branches_libresponse/exe/qcprog.exe_s
QCSCRATCH is /scratch/slurm-761/qchem19728/Frg1
QCFILEPREF is /scratch/slurm-761/qchem19728/Frg1/
-- Serial fragment SCF job
/ihome/dlambrecht/erb74/opt/apps/qchem/qchem_branches_libresponse/exe/qcprog.exe /scratch/slurm-761/qchem19728/Frg1.input /scratch/slurm-761/qchem19728/Frg1/
 SCF on fragment 2 out of 2
/ihome/dlambrecht/erb74/opt/apps/qchem/qchem_branches_libresponse/bin/xr.csh  /scratch/slurm-761/qchem19728/Frg2.input  /dev/null  Frg2
/ihome/dlambrecht/erb74/opt/apps/qchem/qchem_branches_libresponse/bin/xr.csh /scratch/slurm-761/qchem19728/Frg2.input /dev/null Frg2
/ihome/dlambrecht/erb74/opt/apps/qchem/qchem_branches_libresponse/exe/qcprog.exe_s
QCSCRATCH is /scratch/slurm-761/qchem19728/Frg2
QCFILEPREF is /scratch/slurm-761/qchem19728/Frg2/
-- Serial fragment SCF job
/ihome/dlambrecht/erb74/opt/apps/qchem/qchem_branches_libresponse/exe/qcprog.exe /scratch/slurm-761/qchem19728/Frg2.input /scratch/slurm-761/qchem19728/Frg2/
-----------------------------------------------------------------
 Done with SCF on isolated fragments
-----------------------------------------------------------------

 User-specified occupied guess orbitals will be used
 Guess Alpha MO Coefficients
            1           2           3           4           5           6
    1  -0.0000238   0.0000256  -0.0002021   0.9903635  -0.0000315   0.0000147
    2  -0.0002934   0.0001970   0.0001552  -0.0369432  -0.0004638   0.0000177
    3  -0.0006329   0.0031330  -0.0008337   0.0240326   0.0010998   0.0031662
    4  -0.0000109  -0.0001151  -0.0000286   0.0000550   0.0001085   0.0003595
    5   0.0000355   0.0000692  -0.0000180  -0.0013997  -0.0000531  -0.0000774
    6   0.0001668  -0.0001210   0.0000126  -0.0018878   0.0000814  -0.0001820
    7   0.0001382   0.0006646  -0.0004666   0.0059805   0.0012045   0.0005906
    8   0.0001799   0.0012551  -0.0001627  -0.0008686  -0.0004258   0.0013519
    9   0.0016818  -0.0016483   0.0001006  -0.0009609   0.0011213   0.0002326
   10   0.0000213   0.0000263   0.0000003  -0.0004046   0.0000132   0.0002935
   11   0.0000118  -0.0000463   0.0000132   0.0006397  -0.0000297   0.0000017
   12  -0.0000129   0.0000440   0.0000075  -0.0000586  -0.0000334   0.0004008
   13   0.0000766  -0.0000037  -0.0000028  -0.0005976   0.0001619   0.0004139
   14   0.0000267   0.0000497  -0.0000350   0.0005039   0.0000653  -0.0005930
   15  -0.0000807  -0.0000794   0.0000023  -0.0001506   0.0029331   0.9905933
   16   0.0011518   0.0013237  -0.0001418   0.0008380   0.0002619   0.0396414
   17  -0.0066528  -0.0113741   0.0017599  -0.0154476   0.0007422  -0.0451118
   18   0.0002212   0.0000377   0.0000148  -0.0000201  -0.0001578   0.0000102
   19  -0.0000903   0.0002431  -0.0000261   0.0000810   0.0001043   0.0000515
   20   0.0003844   0.0001054  -0.0000410   0.0000475  -0.0004482   0.0003005
   21  -0.0052379   0.0022775  -0.0001531   0.0040302  -0.0003378  -0.0046732
   22   0.0004964  -0.0056976   0.0008922  -0.0007954  -0.0011719  -0.0048733
   23  -0.0001249  -0.0030109   0.0004810  -0.0009481   0.0016705  -0.0042003
   24   0.0001044  -0.0001083   0.0000412  -0.0002525   0.0000289  -0.0001220
   25   0.0001400  -0.0001328  -0.0000015  -0.0000277   0.0001795   0.0004798
   26   0.0002403  -0.0002240  -0.0000393  -0.0003200  -0.0005397  -0.0001115
   27  -0.0000223   0.0002913  -0.0000322  -0.0002036  -0.0005734  -0.0001711
   28  -0.0000652   0.0001199   0.0000391   0.0005727  -0.0001889  -0.0002299
   29  -0.0000943  -0.0001741   0.0000049  -0.0000416   0.9909829  -0.0027325
   30  -0.0000371  -0.0019123  -0.0000614   0.0005678   0.0359208  -0.0011940
   31  -0.0045109  -0.0056208   0.0000439   0.0028567  -0.0100491   0.0122492
   32   0.0001670   0.0004381   0.0000247  -0.0001206   0.0000991   0.0001483
   33  -0.0001120  -0.0000540  -0.0000550   0.0000061   0.0003055   0.0001157
   34  -0.0004457   0.0000098   0.0000601  -0.0001075   0.0005885   0.0002313
   35   0.0060332  -0.0142607   0.0004290  -0.0000406   0.0054926  -0.0042616
   36  -0.0060882   0.0082935  -0.0001285  -0.0004287  -0.0027368   0.0019527
   37  -0.0083562  -0.0015592   0.0001372  -0.0008658   0.0065145  -0.0059337
   38  -0.0000989  -0.0009652  -0.0000143  -0.0000137  -0.0016792   0.0000253
   39   0.0002572  -0.0001340  -0.0000061  -0.0000003   0.0004321   0.0000104
   40   0.0000419  -0.0005975   0.0000075   0.0000773   0.0000967  -0.0004579
   41  -0.0003849   0.0001009   0.0000071   0.0000882   0.0001049  -0.0006504
   42  -0.0000905   0.0004792  -0.0000215  -0.0001512   0.0007725  -0.0002087
   43  -0.0008903   0.9901671   0.0000016   0.0000266   0.0004425  -0.0000652
   44   0.0008772  -0.0363353   0.0000564   0.0002859   0.0007725  -0.0006874
   45  -0.0036070   0.0294311  -0.0004216  -0.0011534  -0.0075289   0.0022634
   46  -0.0001671   0.0023506  -0.0000515  -0.0000138   0.0000563   0.0000993
   47   0.0000038  -0.0013516  -0.0000134   0.0000141  -0.0000005  -0.0000362
   48  -0.0001490   0.0004031   0.0000226  -0.0000261   0.0002039   0.0000694
   49   0.0007476  -0.0058336   0.0002427   0.0003226   0.0039625  -0.0008862
   50   0.0003065   0.0033604  -0.0000391  -0.0000768  -0.0024384   0.0005379
   51   0.0020830  -0.0011494  -0.0000393   0.0002210  -0.0008724   0.0001831
   52  -0.0000461   0.0002506   0.0000120  -0.0000124   0.0000318  -0.0001476
   53   0.0000867  -0.0000415  -0.0000041  -0.0000011  -0.0000963   0.0000460
   54  -0.0001127  -0.0000062   0.0000008   0.0000038  -0.0000461   0.0000407
   55  -0.0002522  -0.0000636  -0.0000044  -0.0000079   0.0001156  -0.0000215
   56  -0.0000635  -0.0001504  -0.0000067  -0.0000340  -0.0000170   0.0000548
   57   0.0000577   0.0000039  -0.0000390  -0.0000263  -0.0000035   0.0066719
   58  -0.0012249  -0.0003379   0.0007054   0.0000214  -0.0009549  -0.0004676
   59   0.0093668   0.0042952  -0.0036035   0.0090456   0.0046804   0.0076213
   60  -0.0000475  -0.0001231   0.0001521  -0.0001702  -0.0000451   0.0001849
   61   0.0000182  -0.0000351   0.0000009  -0.0000835   0.0000458   0.0003386
   62  -0.0001788   0.0000302   0.0000285   0.0001017  -0.0002106  -0.0003139
   63   0.0034992  -0.0021556  -0.0015400   0.0040361   0.0012175  -0.0040200
   64  -0.0017395  -0.0008485  -0.0001776  -0.0020929  -0.0010291  -0.0021824
   65   0.0025691   0.0031300  -0.0011833  -0.0003196   0.0033816   0.0059045
   66   0.0000008   0.0000758  -0.0000493   0.0000825   0.0000428  -0.0003705
   67  -0.0000320  -0.0000858   0.0000045  -0.0000630  -0.0001290   0.0004021
   68  -0.0000671   0.0000405   0.0000387  -0.0000172   0.0000899   0.0001675
   69  -0.0000466  -0.0001311   0.0000209  -0.0001077   0.0000196   0.0002304
   70  -0.0000771   0.0000326  -0.0000299   0.0000093  -0.0000404   0.0002323
   71  -0.0006043  -0.0003603   0.0003441   0.0001479  -0.0006123  -0.0004671
   72  -0.0003609  -0.0013336   0.0005117   0.0002005  -0.0001679  -0.0007621
   73  -0.0001464  -0.0000574   0.0000430  -0.0002824  -0.0000206  -0.0000877
   74  -0.0000134   0.0000871   0.0000031  -0.0001133  -0.0000928  -0.0003104
   75  -0.0000880  -0.0000818   0.0000524   0.0000125  -0.0001121   0.0001268
   76   0.0002270   0.0000485  -0.0001087   0.0000497   0.0003544   0.0001887
   77   0.0003822   0.0004593  -0.0002655   0.0006504   0.0008857   0.0007188
   78  -0.0000277   0.0001301   0.0000667  -0.0001850   0.0000467   0.0000217
   79   0.0001081  -0.0000494   0.0000360  -0.0000055   0.0000060  -0.0002982
   80   0.0000740  -0.0000159  -0.0000667   0.0002568  -0.0000132   0.0000355
   81   0.0000068   0.0000255   0.0000108  -0.0000223  -0.0000341  -0.0000843
   82   0.0000254  -0.0004678   0.0000577   0.0004947  -0.0007112  -0.0012889
   83  -0.0024268   0.0033871   0.0089407  -0.0044883   0.0073994   0.0141978
   84   0.0000319   0.0000529   0.0000839  -0.0002009   0.0000437   0.0002868
   85   0.0000882  -0.0000231   0.0000191  -0.0000461   0.0001566   0.0001767
   86   0.0001649  -0.0000964   0.0000384   0.0000711  -0.0001087  -0.0000560
   87   0.0029218  -0.0007214   0.0024913   0.0067658   0.0026622  -0.0020607
   88  -0.0022349   0.0000122   0.0016276   0.0002097  -0.0027627  -0.0028225
   89  -0.0045659  -0.0002131   0.0023836  -0.0015658  -0.0039644  -0.0020255
   90  -0.0000517  -0.0000049   0.0001012  -0.0000183  -0.0000622   0.0000359
   91   0.0000060  -0.0000498  -0.0000655  -0.0000098   0.0000810   0.0000132
   92  -0.0000091   0.0000117  -0.0000044   0.0000246   0.0000135  -0.0000100
   93   0.0000020   0.0000529   0.0001455   0.0000749   0.0000197  -0.0001407
   94  -0.0001024   0.0000363  -0.0000598  -0.0001009   0.0000476   0.0000516
   95  -0.0000205   0.0000134  -0.0001598   0.0000070  -0.0000280   0.0001906
   96   0.0002243  -0.0001396  -0.0004061  -0.0002283  -0.0000892   0.0006177
   97   0.0009845  -0.0007694  -0.0153407  -0.0013856  -0.0014309  -0.0022875
   98  -0.0001302   0.0000422   0.0003671   0.0000247   0.0000038  -0.0001128
   99  -0.0000350   0.0000471  -0.0000730   0.0000128   0.0000882  -0.0000390
  100   0.0000310  -0.0000509  -0.0001424   0.0000657  -0.0000578  -0.0000237
  101  -0.0010924  -0.0001306  -0.0008626   0.0004449  -0.0004680   0.0013441
  102   0.0001070  -0.0002500   0.0036504   0.0004348   0.0004614   0.0009768
  103   0.0001622   0.0003522   0.0053364   0.0008319   0.0011774   0.0002872
  104  -0.0000078   0.0000282  -0.0004259  -0.0000120  -0.0000275  -0.0000592
  105  -0.0000405  -0.0000265   0.0000803  -0.0000112  -0.0000020  -0.0000108
  106  -0.0000686   0.0000215  -0.0002225  -0.0000565   0.0000030   0.0000352
  107  -0.0000261   0.0000192  -0.0007418  -0.0000599   0.0000117   0.0000311
  108   0.0000390  -0.0000414   0.0005618   0.0000429   0.0000124  -0.0000083
  109   0.0000059   0.0000005   0.9901936   0.0002204   0.0000087   0.0000002
  110   0.0001185  -0.0000098  -0.0383575   0.0001464   0.0001192   0.0000045
  111  -0.0006702  -0.0000139   0.0353902  -0.0004072  -0.0009749  -0.0010949
  112  -0.0000009  -0.0000068  -0.0000547   0.0000331  -0.0000005  -0.0000131
  113   0.0000106   0.0000278  -0.0003189  -0.0000022   0.0000528  -0.0000379
  114   0.0000561  -0.0000137   0.0000411   0.0000075   0.0000089  -0.0000143
  115   0.0000986  -0.0002216  -0.0076624   0.0005024  -0.0001239  -0.0001834
  116   0.0002960   0.0002984  -0.0032525   0.0000148   0.0006649  -0.0001528
  117   0.0006352   0.0001022  -0.0037335   0.0000126   0.0006009   0.0000888
  118   0.0000065  -0.0000146  -0.0003023   0.0000065  -0.0000118   0.0000080
  119  -0.0000208   0.0000041  -0.0002211  -0.0000170  -0.0000159  -0.0000043
  120  -0.0000068  -0.0000087   0.0004109   0.0000015  -0.0000100   0.0000003
  121   0.0000050  -0.0000095  -0.0005561   0.0000141  -0.0000043  -0.0000005
  122  -0.0000098   0.0000066  -0.0009503  -0.0000238   0.0000011   0.0000111
  123  -0.0000507   0.0000470   0.0029350  -0.0001027   0.0000265   0.0001404
  124  -0.0000527  -0.0000196  -0.0017067  -0.0000786  -0.0000233   0.0000557
  125   0.0000152   0.0000065  -0.0024186   0.0000088   0.0000114  -0.0000113
  126   0.0000064  -0.0000288  -0.0003071   0.0000087  -0.0000397   0.0000187
  127  -0.0000193   0.0000020  -0.0008055   0.0000153  -0.0000045  -0.0000185
  128  -0.0000077   0.0000018  -0.0001281  -0.0000088   0.0000027  -0.0000142
  129   0.0001663   0.0000079  -0.0008976   0.0001846   0.0001636  -0.0000807
  130  -0.0004089  -0.0010569  -0.0144383   0.0026437  -0.0012397  -0.0019109
  131  -0.0000032   0.0000068   0.0001873  -0.0000201   0.0000155   0.0000154
  132   0.0000069   0.0000063   0.0003077   0.0000326   0.0000120  -0.0000523
  133   0.0000298  -0.0000169   0.0003850   0.0000251   0.0000070  -0.0000340
  134   0.0008515   0.0006391  -0.0000685  -0.0011056   0.0005147  -0.0005404
  135   0.0009216   0.0003368  -0.0057982  -0.0001033   0.0016713   0.0018524
  136   0.0008646   0.0006460  -0.0079472  -0.0000944   0.0025993   0.0024202
  137  -0.0000081  -0.0000079   0.0002586  -0.0000037  -0.0000183  -0.0000266
  138  -0.0000054  -0.0000037   0.0006840  -0.0000088  -0.0000094  -0.0000105
  139   0.0000115   0.0000147   0.0003701   0.0000061   0.0000174  -0.0000300
  140   0.0000132  -0.0000008   0.0003563   0.0000017  -0.0000308  -0.0000454
  141  -0.0000196  -0.0000102  -0.0002472  -0.0000054  -0.0000208   0.0000121
  142   0.0000272  -0.0000086   0.0000347   0.0000026  -0.0000098  -0.0000681
  143  -0.0003036   0.0000922  -0.0001375  -0.0000790   0.0000644   0.0001063
  144  -0.0017556   0.0002111   0.0071330  -0.0009208  -0.0035721  -0.0046443
  145   0.0000212  -0.0000537   0.0000823   0.0000243  -0.0000583  -0.0000008
  146   0.0000452   0.0000076   0.0000227  -0.0000070   0.0000458   0.0001078
  147  -0.0000465   0.0000410   0.0000231  -0.0000005   0.0001308   0.0000550
  148   0.0010558   0.0010754   0.0010298  -0.0030229   0.0018981   0.0023953
  149  -0.0021552  -0.0004969   0.0001362  -0.0015044  -0.0036563  -0.0032225
  150  -0.0023547  -0.0009049   0.0000315  -0.0014988  -0.0057902  -0.0049448
  151   0.0000177   0.0000005  -0.0000458  -0.0000102   0.0000238   0.0000371
  152  -0.0000344   0.0000105  -0.0001661  -0.0000386  -0.0000460   0.0000068
  153   0.0000064  -0.0000141  -0.0000703  -0.0000001  -0.0000557  -0.0000395
  154   0.0000229   0.0000038  -0.0000583  -0.0000263   0.0000538   0.0001184
  155   0.0000152   0.0000233   0.0000232   0.0000288   0.0000072  -0.0000878
  156   0.0000141  -0.0000026  -0.0000178   0.0000009  -0.0000120  -0.0000201
  157  -0.0001855   0.0000074   0.0004687  -0.0000422  -0.0002368  -0.0000231
  158  -0.0008182  -0.0002251  -0.0050349  -0.0015662  -0.0032886  -0.0037472
  159  -0.0000123  -0.0000127   0.0001078  -0.0000444  -0.0000249  -0.0000321
  160   0.0000046  -0.0000075   0.0000379  -0.0000148  -0.0000480  -0.0000709
  161  -0.0000386   0.0000320   0.0000605   0.0000317  -0.0000146   0.0000093
  162  -0.0007778  -0.0004165  -0.0028404   0.0002401  -0.0022793  -0.0020844
  163  -0.0001439  -0.0000565  -0.0003334  -0.0009560  -0.0002912   0.0003452
  164  -0.0002793  -0.0001455  -0.0003104  -0.0017117  -0.0003043   0.0001949
  165   0.0000021  -0.0000192   0.0000062  -0.0000049  -0.0000310  -0.0000278
  166   0.0000151   0.0000071  -0.0000445  -0.0000138  -0.0000017  -0.0000309
  167  -0.0000046   0.0000150   0.0000202  -0.0000081   0.0000324   0.0000189
  168  -0.0000156  -0.0000243   0.0000188  -0.0000140  -0.0000296  -0.0000228
  169  -0.0000195  -0.0000099  -0.0000635  -0.0000102  -0.0000341  -0.0000695
  170  -0.0000846   0.0000026  -0.0002090   0.0001136  -0.0001411  -0.0000771
  171  -0.0002821  -0.0002674  -0.0005289   0.0000862  -0.0007313  -0.0005325
  172   0.0000038  -0.0000085   0.0000098  -0.0000006  -0.0000026   0.0000332
  173  -0.0000040   0.0000070   0.0000254   0.0000139   0.0000127  -0.0000138
  174   0.0000082   0.0000199   0.0000353   0.0000456   0.0000128  -0.0000355
  175  -0.0000004   0.0000015  -0.0000117   0.0000079  -0.0000068  -0.0000148
  176   0.0000458   0.0000090   0.0001356  -0.0000973   0.0000367  -0.0000126
  177   0.0002876   0.0001504   0.0046530  -0.0007002   0.0021835   0.0030920
  178  -0.0000095   0.0000043   0.0000321   0.0000020  -0.0000106   0.0000068
  179   0.0000004   0.0000035   0.0000310  -0.0000072   0.0000139   0.0000111
  180   0.0000168  -0.0000066   0.0000459  -0.0000141   0.0000072  -0.0000059
  181   0.0001758   0.0001053   0.0007762   0.0006763   0.0003543  -0.0001130
  182  -0.0000207  -0.0000158   0.0010212  -0.0002766   0.0003351   0.0005131
  183  -0.0000565   0.0000418   0.0014061  -0.0003074   0.0005207   0.0010073
  184  -0.0000003   0.0000052   0.0000044   0.0000049  -0.0000029  -0.0000035
  185  -0.0000153  -0.0000093  -0.0000051  -0.0000078  -0.0000187  -0.0000064
  186  -0.0000059   0.0000020   0.0000095   0.0000051  -0.0000000   0.0000075
  187  -0.0000020   0.0000054   0.0000075  -0.0000028  -0.0000038  -0.0000139
  188  -0.0000086  -0.0000041  -0.0000194  -0.0000034  -0.0000040   0.0000122
  189  -0.0000082   0.0000001   0.0000804   0.0000080   0.0000104   0.0000074
  190  -0.0000497   0.0000083  -0.0000004   0.0000293  -0.0000338  -0.0000478
  191  -0.0000131  -0.0000045  -0.0000147  -0.0000169  -0.0000072   0.0000215
  192  -0.0000006   0.0000047  -0.0000247   0.0000082   0.0000017   0.0000031
  193   0.0000055  -0.0000020  -0.0000337   0.0000005  -0.0000060  -0.0000244
  194   0.0000024   0.0000010  -0.0000074   0.0000013  -0.0000040   0.0000042
  195  -0.0000259  -0.0000143   0.0003940  -0.0000128   0.0000218   0.0001054
  196  -0.0007398  -0.0004725  -0.0030436   0.0002335  -0.0019757  -0.0019376
  197  -0.0000099  -0.0000058  -0.0000308   0.0000019  -0.0000201  -0.0000214
  198  -0.0000084  -0.0000032   0.0000438  -0.0000026   0.0000025   0.0000114
  199  -0.0000025  -0.0000027   0.0000694   0.0000023   0.0000016   0.0000158
  200  -0.0000036   0.0000079   0.0016692   0.0003360   0.0003931   0.0004694
  201  -0.0000648  -0.0000737  -0.0011440   0.0002470  -0.0003334  -0.0004578
  202  -0.0001372  -0.0001129  -0.0017342   0.0002789  -0.0004959  -0.0008081
  203  -0.0000018  -0.0000037  -0.0000203  -0.0000039  -0.0000077  -0.0000031
  204  -0.0000036  -0.0000011  -0.0000835  -0.0000041  -0.0000109  -0.0000146
  205  -0.0000012   0.0000008  -0.0000023   0.0000011   0.0000024   0.0000003
  206  -0.0000062   0.0000009  -0.0000144   0.0000009  -0.0000044  -0.0000001
  207  -0.0000050   0.0000005  -0.0000539  -0.0000025  -0.0000083  -0.0000087
  208   0.0000114   0.0000016  -0.0002840   0.0000092  -0.0000279  -0.0000783
  209   0.0000259   0.0000074  -0.0007474  -0.0000017  -0.0000377  -0.0001364
  210   0.0000025   0.0000026   0.0000187  -0.0000125  -0.0000038  -0.0000017
  211  -0.0000032   0.0000002  -0.0000002  -0.0000106  -0.0000007  -0.0000008
  212   0.0000003   0.0000013  -0.0000004  -0.0000090  -0.0000014   0.0000092
  213  -0.0000014  -0.0000007   0.0000498  -0.0000017  -0.0000008   0.0000189
  214   0.0000390   0.0000088  -0.0007922   0.0000540   0.0001307   0.0001451
  215   0.0006610   0.0006343   0.0015942  -0.0008953   0.0025809   0.0035409
  216  -0.0000021  -0.0000017   0.0000754  -0.0000032  -0.0000164  -0.0000263
  217   0.0000111   0.0000065  -0.0000413  -0.0000046   0.0000236   0.0000267
  218   0.0000211   0.0000101  -0.0000718   0.0000008   0.0000296   0.0000188
  219  -0.0004764  -0.0003709   0.0002389   0.0003929  -0.0011435  -0.0011833
  220  -0.0002848  -0.0000598   0.0005017   0.0001604  -0.0000565   0.0001202
  221  -0.0002588  -0.0001309   0.0006212   0.0001930  -0.0000665   0.0004420
  222   0.0000023  -0.0000040  -0.0000081   0.0000034   0.0000018   0.0000072
  223  -0.0000131  -0.0000020   0.0001106  -0.0000057  -0.0000111   0.0000001
  224   0.0000023  -0.0000086   0.0001713   0.0000012  -0.0000122   0.0000028
  225  -0.0000009  -0.0000001   0.0000322   0.0000091   0.0000060  -0.0000018
  226   0.0000044   0.0000012  -0.0002317  -0.0000084   0.0000000   0.0000011
  227   0.0000585   0.0000295  -0.0000489  -0.0000128   0.0000799   0.0000372
  228   0.0000649   0.0000487  -0.0001033  -0.0000452   0.0000338  -0.0000570
  229   0.0000079   0.0000059  -0.0001296  -0.0000039   0.0000191   0.0000150
  230   0.0000114  -0.0000025  -0.0000072  -0.0000007  -0.0000006   0.0000030
  231   0.0000062   0.0000032   0.0000046   0.0000019   0.0000029  -0.0000179
  232  -0.0000430  -0.0001001  -0.0001138  -0.0000307  -0.0001660   0.0000876
  233   0.0000721   0.0004034  -0.0001309  -0.0002871  -0.0001138  -0.0002619
  234   0.0000199   0.0000108   0.0001709  -0.0000294   0.0000272  -0.0001016
  235  -0.0000504  -0.0000083  -0.0000668   0.0000050   0.0000115  -0.0000223
  236  -0.0000440  -0.0000521  -0.0001099  -0.0000135  -0.0000498   0.0000587
  237   0.0003871  -0.0006164   0.0000555   0.0016051   0.0004616   0.0002220
  238   0.0001576  -0.0006099  -0.0000570  -0.0019884   0.0000516   0.0001032
  239  -0.0000219  -0.0000192  -0.0000029   0.0006808  -0.0000742   0.0003386
  240  -0.0001063  -0.0000027   0.0000074  -0.0010071  -0.0000458  -0.0002028
  241   0.0000176  -0.0001895   0.0000095   0.0020214   0.0000471  -0.0002227
  242   0.0005026  -0.0004370   0.0000977   0.0007737   0.0000017  -0.0013517
  243   0.0004530  -0.0002832   0.0001721   0.0020037   0.0009046   0.0065466
  244   0.0002458   0.0000165  -0.0000094  -0.0002245   0.0002363   0.0004412
  245  -0.0000277   0.0000172   0.0000216   0.0000710   0.0000054  -0.0008581
  246  -0.0001777   0.0002293  -0.0000069   0.0001073   0.0003171  -0.0005343
  247  -0.0001255   0.0003956  -0.0000450   0.0014147  -0.0003285   0.0007757
  248   0.0003262   0.0003415  -0.0000226  -0.0018421   0.0002026   0.0007681
  249   0.0000019   0.0001016   0.0000275   0.0006525  -0.0001245   0.0005109
  250   0.0000433   0.0000474  -0.0000241   0.0022364   0.0000817  -0.0000300
  251  -0.0001284   0.0001298  -0.0000140  -0.0003342  -0.0000722  -0.0000896
  252   0.9901720   0.0010629   0.0000047  -0.0000237   0.0000960  -0.0000437
  253  -0.0358431   0.0009343   0.0000453  -0.0002622   0.0006898  -0.0003324
  254   0.0243902  -0.0045680  -0.0000817   0.0010347  -0.0032656  -0.0001904
  255   0.0006483   0.0000176   0.0000040   0.0000679   0.0000099  -0.0000558
  256   0.0003634  -0.0000986   0.0000016  -0.0001435  -0.0000339   0.0000486
  257   0.0022513  -0.0002547  -0.0000054  -0.0000873   0.0002563   0.0001935
  258   0.0020283   0.0014212  -0.0000577  -0.0002795  -0.0022405   0.0003802
  259  -0.0024671  -0.0000756   0.0000040   0.0003624   0.0023162  -0.0002573
  260  -0.0050072   0.0024128   0.0000301   0.0000121   0.0018521  -0.0002412
  261   0.0001585  -0.0000245   0.0000014   0.0000828   0.0004925  -0.0000912
  262   0.0002335  -0.0000005   0.0000011  -0.0000315  -0.0006362   0.0000144
  263   0.0002573  -0.0001931  -0.0000055   0.0000712  -0.0003332   0.0000249
  264  -0.0004015  -0.0002008   0.0000049   0.0000417   0.0004488  -0.0000162
  265  -0.0002725  -0.0000576  -0.0000036  -0.0000368  -0.0000809   0.0000568
  266   0.0002326   0.0007760  -0.0000159  -0.0004486   0.0005012   0.0002944
  267  -0.0017425  -0.0001063   0.0000115  -0.0016684   0.0003897   0.0005649
  268   0.0015268   0.0001564  -0.0000155   0.0002342   0.0003175   0.0001811
  269  -0.0003344   0.0000636  -0.0000041   0.0002424  -0.0003303  -0.0000067
  270   0.0010390   0.0002855   0.0000021   0.0006011  -0.0006059  -0.0004643
  271   0.0000000   0.0000000   0.0000000   0.0000000   0.0000000   0.0000000
  272   0.0000000   0.0000000   0.0000000   0.0000000   0.0000000   0.0000000
  273   0.0000000   0.0000000   0.0000000   0.0000000   0.0000000   0.0000000
  274   0.0000000   0.0000000   0.0000000   0.0000000   0.0000000   0.0000000
  275   0.0000000   0.0000000   0.0000000   0.0000000   0.0000000   0.0000000
  276   0.0000000   0.0000000   0.0000000   0.0000000   0.0000000   0.0000000
  277   0.0000000   0.0000000   0.0000000   0.0000000   0.0000000   0.0000000
  278   0.0000000   0.0000000   0.0000000   0.0000000   0.0000000   0.0000000
  279   0.0000000   0.0000000   0.0000000   0.0000000   0.0000000   0.0000000
  280   0.0000000   0.0000000   0.0000000   0.0000000   0.0000000   0.0000000
  281   0.0000000   0.0000000   0.0000000   0.0000000   0.0000000   0.0000000
  282   0.0000000   0.0000000   0.0000000   0.0000000   0.0000000   0.0000000
  283   0.0000000   0.0000000   0.0000000   0.0000000   0.0000000   0.0000000
  284   0.0000000   0.0000000   0.0000000   0.0000000   0.0000000   0.0000000
  285   0.0000000   0.0000000   0.0000000   0.0000000   0.0000000   0.0000000
  286   0.0000000   0.0000000   0.0000000   0.0000000   0.0000000   0.0000000
  287   0.0000000   0.0000000   0.0000000   0.0000000   0.0000000   0.0000000
  288   0.0000000   0.0000000   0.0000000   0.0000000   0.0000000   0.0000000
  289   0.0000000   0.0000000   0.0000000   0.0000000   0.0000000   0.0000000
  290   0.0000000   0.0000000   0.0000000   0.0000000   0.0000000   0.0000000
  291   0.0000000   0.0000000   0.0000000   0.0000000   0.0000000   0.0000000
  292   0.0000000   0.0000000   0.0000000   0.0000000   0.0000000   0.0000000
  293   0.0000000   0.0000000   0.0000000   0.0000000   0.0000000   0.0000000
  294   0.0000000   0.0000000   0.0000000   0.0000000   0.0000000   0.0000000
  295   0.0000000   0.0000000   0.0000000   0.0000000   0.0000000   0.0000000
  296   0.0000000   0.0000000   0.0000000   0.0000000   0.0000000   0.0000000
  297   0.0000000   0.0000000   0.0000000   0.0000000   0.0000000   0.0000000
  298   0.0000000   0.0000000   0.0000000   0.0000000   0.0000000   0.0000000
  299   0.0000000   0.0000000   0.0000000   0.0000000   0.0000000   0.0000000
  300   0.0000000   0.0000000   0.0000000   0.0000000   0.0000000   0.0000000
  301   0.0000000   0.0000000   0.0000000   0.0000000   0.0000000   0.0000000
  302   0.0000000   0.0000000   0.0000000   0.0000000   0.0000000   0.0000000
            7           8           9          10          11          12
    1   0.0000058  -0.0000054  -0.0000333   0.0000039   0.0000001   0.0000041
    2   0.0001182  -0.0000833  -0.0003714  -0.0000035  -0.0000127   0.0000535
    3  -0.0007572   0.0005215   0.0018440   0.0005593   0.0002264  -0.0001511
    4  -0.0000224   0.0000129   0.0000514  -0.0000310  -0.0000046  -0.0000123
    5  -0.0000092   0.0000043   0.0001108  -0.0000351  -0.0000016  -0.0000071
    6   0.0000611  -0.0000041  -0.0000224  -0.0000048   0.0000012   0.0000026
    7  -0.0000468   0.0002319   0.0008381  -0.0002337   0.0000500  -0.0000915
    8  -0.0001210  -0.0000022   0.0009404  -0.0003727  -0.0000309  -0.0000531
    9   0.0009663  -0.0000539  -0.0004610  -0.0002854   0.0000084   0.0000606
   10   0.0000163  -0.0000033   0.0000773  -0.0000179   0.0000018  -0.0000003
   11  -0.0000019  -0.0000059  -0.0001005   0.0000075  -0.0000009   0.0000025
   12  -0.0000513  -0.0000061  -0.0000320   0.0000024  -0.0000053  -0.0000022
   13   0.0000435   0.0000001  -0.0000388  -0.0000143   0.0000023   0.0000021
   14   0.0000039   0.0000118   0.0000458  -0.0000260   0.0000015  -0.0000050
   15  -0.0002573   0.0000195  -0.0064572   0.0000415  -0.0000372   0.0000004
   16   0.0006774  -0.0000599  -0.0006262  -0.0002024   0.0001602  -0.0000767
   17  -0.0024029  -0.0002920   0.0043610   0.0024608  -0.0009121   0.0012079
   18   0.0000859  -0.0000280  -0.0002023  -0.0001015   0.0000023  -0.0000101
   19   0.0000319  -0.0000163  -0.0003090   0.0000344   0.0000089   0.0000221
   20   0.0000828   0.0000217   0.0002593  -0.0000929   0.0000085  -0.0000173
   21  -0.0023149   0.0004676   0.0023358   0.0017832  -0.0000313   0.0002980
   22   0.0005080  -0.0000575   0.0010970   0.0012074  -0.0000977   0.0001676
   23  -0.0035944  -0.0003695  -0.0049597   0.0002841  -0.0002401  -0.0003756
   24   0.0000115  -0.0000090  -0.0003147   0.0000763   0.0000016   0.0000146
   25  -0.0000277  -0.0000153   0.0005901  -0.0000426  -0.0000104  -0.0000047
   26   0.0000696   0.0000146  -0.0000057  -0.0000350   0.0000127   0.0000060
   27  -0.0001240   0.0000042   0.0001715   0.0000217   0.0000033  -0.0000168
   28  -0.0000685  -0.0000001   0.0003577  -0.0000330  -0.0000026  -0.0000023
   29   0.0000528  -0.0000139   0.0001152   0.0000533  -0.0000083   0.0000098
   30  -0.0002041   0.0000287  -0.0012291  -0.0003626   0.0000302  -0.0000528
   31   0.0050260  -0.0002655   0.0061965   0.0000129   0.0003562   0.0001843
   32  -0.0001052   0.0000034   0.0000717   0.0000103  -0.0000029   0.0000073
   33  -0.0000992   0.0000316  -0.0000809  -0.0000391  -0.0000039  -0.0000101
   34   0.0000588  -0.0000187   0.0002596   0.0001219  -0.0000126   0.0000264
   35   0.0006287  -0.0003107  -0.0030563  -0.0005563  -0.0002733  -0.0001024
   36  -0.0005965  -0.0000202   0.0031664   0.0007221   0.0001485   0.0001332
   37  -0.0029853  -0.0000851  -0.0022222   0.0004760  -0.0000502   0.0000502
   38  -0.0001321   0.0000230  -0.0000545   0.0000238  -0.0000066  -0.0000029
   39  -0.0000499   0.0000060  -0.0001014   0.0000179   0.0000123   0.0000004
   40   0.0000128  -0.0000126   0.0001726   0.0000235   0.0000046   0.0000007
   41   0.0001273  -0.0000062  -0.0001147  -0.0000339  -0.0000020   0.0000001
   42   0.0000539   0.0000163  -0.0000409  -0.0000196  -0.0000007   0.0000025
   43   0.0000104   0.0000011  -0.0000024  -0.0000038   0.0000000   0.0000014
   44   0.0002364  -0.0000178  -0.0000557  -0.0000634  -0.0000025   0.0000149
   45  -0.0017665   0.0002638   0.0010767   0.0004886   0.0000919  -0.0000106
   46  -0.0000440   0.0000268   0.0000093  -0.0000066   0.0000008  -0.0000018
   47  -0.0000845   0.0000049   0.0000570   0.0000208   0.0000001   0.0000078
   48   0.0000113  -0.0000247  -0.0000967   0.0000131  -0.0000102  -0.0000001
   49   0.0005262  -0.0001381  -0.0003469  -0.0001126  -0.0000146   0.0000100
   50   0.0000032   0.0000466  -0.0002602  -0.0000409   0.0000031  -0.0000407
   51   0.0004264   0.0000715   0.0005671  -0.0001174   0.0000332  -0.0000006
   52   0.0000076  -0.0000073  -0.0000003  -0.0000063   0.0000027   0.0000040
   53   0.0000072   0.0000050   0.0000301  -0.0000098   0.0000040   0.0000013
   54   0.0000250  -0.0000024  -0.0000296  -0.0000059  -0.0000025   0.0000003
   55  -0.0000408  -0.0000006  -0.0000412   0.0000002   0.0000003  -0.0000004
   56  -0.0000177   0.0000024   0.0000382   0.0000135  -0.0000014   0.0000006
   57  -0.0002503   0.0002565   0.9903932   0.0006360  -0.0000855  -0.0000615
   58  -0.0000592  -0.0000367   0.0404844  -0.0001519   0.0002292   0.0002534
   59  -0.0115366   0.0022377  -0.0378086  -0.0135916  -0.0011263  -0.0036976
   60  -0.0002877   0.0000455   0.0000254  -0.0002986  -0.0000006  -0.0000249
   61  -0.0001297  -0.0000061   0.0000542   0.0000447  -0.0000061  -0.0000369
   62  -0.0000546  -0.0000417   0.0000249   0.0002621  -0.0000229  -0.0000040
   63  -0.0024094   0.0011704  -0.0019444  -0.0052807  -0.0004886  -0.0012286
   64   0.0026244   0.0005249   0.0034736   0.0005966   0.0001380   0.0006587
   65   0.0041823   0.0005442  -0.0017644  -0.0013852   0.0006471   0.0001542
   66   0.0000763   0.0000083  -0.0002092  -0.0000183   0.0000192  -0.0000100
   67   0.0000304  -0.0000126   0.0003128  -0.0000257   0.0000086   0.0000244
   68  -0.0001035  -0.0000208   0.0002387   0.0000857   0.0000081   0.0000187
   69   0.0001408  -0.0000047   0.0003005   0.0000875   0.0000143   0.0000114
   70   0.0000400   0.0000063  -0.0000396  -0.0000438  -0.0000239  -0.0000355
   71  -0.0004163  -0.0001504  -0.0009683   0.0005795  -0.0000114   0.0000208
   72   0.0000359  -0.0006036   0.0060068   0.0014138  -0.0000407   0.0001363
   73   0.0001139   0.0000064   0.0000524   0.0000116   0.0000431   0.0000225
   74  -0.0000120   0.0000220   0.0008278  -0.0000745   0.0000139   0.0000071
   75  -0.0001154  -0.0000144   0.0009717   0.0000975  -0.0000170   0.0000311
   76   0.0008004   0.0000079  -0.0013220  -0.0001942   0.0001095   0.0001262
   77   0.0016991   0.0003068   0.0057031  -0.0000213   0.0001734   0.0000432
   78  -0.0000502  -0.0000225  -0.0005955   0.0000108   0.0000112   0.0000187
   79  -0.0001535  -0.0000438  -0.0001036   0.0000498  -0.0000101  -0.0000199
   80  -0.0000293   0.0000290  -0.0011726  -0.0000264  -0.0000052  -0.0000318
   81   0.0163686   0.0002048   0.0086013   0.0002820   0.0012040  -0.0007436
   82  -0.0015206   0.0010714  -0.0004034  -0.0005452   0.0007140  -0.0002021
   83   0.0030442  -0.0078038   0.0179306  -0.0276114   0.0123349  -0.0007419
   84  -0.0005853   0.0000397   0.0004024   0.0004417   0.0001453   0.0000266
   85  -0.0004932  -0.0002097  -0.0001456   0.0000619  -0.0001053  -0.0000342
   86  -0.0005535  -0.0002661  -0.0001024   0.0001873  -0.0001693  -0.0000255
   87  -0.0139992  -0.0006624   0.0041368  -0.0217555   0.0025620  -0.0032042
   88  -0.0012207  -0.0018877  -0.0001234   0.0054724  -0.0011308   0.0006900
   89  -0.0007136  -0.0029291   0.0008824   0.0094428  -0.0018379   0.0013135
   90  -0.0002370  -0.0001427   0.0002841   0.0001147  -0.0000257   0.0000253
   91  -0.0003081  -0.0000440  -0.0000356  -0.0001875  -0.0000146  -0.0000214
   92   0.0001742  -0.0000245   0.0003678  -0.0000405  -0.0000051   0.0000007
   93  -0.0002763  -0.0002122   0.0003103   0.0001035  -0.0000281   0.0000181
   94  -0.0004800   0.0000362  -0.0006212  -0.0000408   0.0000042  -0.0000059
   95   0.9904867   0.0006345   0.0001571  -0.0000972  -0.0006907   0.0000222
   96   0.0375862   0.0004123  -0.0005816   0.0004946   0.0014274   0.0001683
   97  -0.0028564   0.0096233  -0.0081911   0.0151153  -0.0042884   0.0017500
   98   0.0008417   0.0004550   0.0001884  -0.0002175   0.0003248   0.0000356
   99  -0.0002887  -0.0001284   0.0000001  -0.0000588  -0.0001790   0.0000013
  100  -0.0004078  -0.0002573  -0.0000461  -0.0000906  -0.0002956  -0.0000123
  101   0.0026117  -0.0036705  -0.0002246  -0.0019141   0.0014441   0.0003738
  102  -0.0040955  -0.0046991   0.0031626  -0.0043948   0.0016637  -0.0005496
  103  -0.0067904  -0.0062928   0.0044404  -0.0059773   0.0022233  -0.0008301
  104   0.0002223  -0.0001694   0.0000297   0.0000803  -0.0000532   0.0000135
  105   0.0018525   0.0003537   0.0001226   0.0000114  -0.0000230  -0.0000145
  106   0.0004096   0.0002317   0.0000726   0.0000464   0.0000478  -0.0000118
  107   0.0000759  -0.0002429   0.0000244   0.0000969  -0.0000693   0.0000067
  108   0.0006961  -0.0000924   0.0000003  -0.0000871  -0.0000711   0.0000157
  109   0.0001612   0.0001936  -0.0000361   0.0000083   0.0000591  -0.0000121
  110   0.0014408   0.0021902  -0.0006559   0.0000180   0.0008434  -0.0002238
  111  -0.0147587  -0.0224953   0.0054679   0.0033164  -0.0088370   0.0027713
  112   0.0000511   0.0002281  -0.0000275  -0.0000016   0.0002538   0.0000288
  113   0.0001035  -0.0000802  -0.0000147   0.0000321  -0.0000230  -0.0000380
  114   0.0002260  -0.0001186  -0.0000296   0.0000263  -0.0000539  -0.0000511
  115   0.0090555   0.0067484  -0.0012314  -0.0006737   0.0039146   0.0009438
  116  -0.0000287   0.0066979  -0.0002911  -0.0010928   0.0015093  -0.0008740
  117  -0.0005515   0.0087068  -0.0002767  -0.0015704   0.0018451  -0.0012500
  118   0.0002639  -0.0003164  -0.0000179   0.0000306  -0.0000566  -0.0000345
  119  -0.0005347  -0.0011297   0.0000686  -0.0000493   0.0000576  -0.0000146
  120   0.0000964  -0.0003758   0.0000109  -0.0000117  -0.0000074   0.0000097
  121   0.0005534  -0.0003650  -0.0000272   0.0000486  -0.0000554  -0.0000290
  122  -0.0006491  -0.0000089   0.0000390  -0.0000254   0.0000714  -0.0000213
  123  -0.0010308  -0.0010312  -0.0001182   0.0001044  -0.0006848  -0.0002292
  124  -0.0004608  -0.0004151   0.0002424   0.0000320  -0.0006067  -0.0001842
  125  -0.0003881   0.0001106   0.0000081  -0.0000247   0.0001277   0.0000239
  126   0.0002583  -0.0005643  -0.0000262   0.0000415  -0.0000319   0.0000118
  127   0.0005108  -0.0006314  -0.0000421   0.0000586   0.0000324   0.0000370
  128  -0.0007975   0.9903010  -0.0002631  -0.0002470  -0.0158788   0.0035765
  129   0.0003267   0.0381692  -0.0002217  -0.0010538  -0.0020519   0.0000771
  130  -0.0002310  -0.0165885   0.0097325  -0.0110242   0.0094087  -0.0051389
  131   0.0003566  -0.0000265  -0.0000810  -0.0000741  -0.0002821   0.0004406
  132   0.0000681   0.0004022  -0.0000177   0.0000858   0.0003650  -0.0001834
  133   0.0000683   0.0005118   0.0000107   0.0001274   0.0005343  -0.0002954
  134  -0.0078917   0.0005635  -0.0063271   0.0122782  -0.0120732  -0.0054527
  135   0.0068235   0.0156401  -0.0015340  -0.0076950   0.0091348  -0.0014316
  136   0.0099509   0.0218212  -0.0016870  -0.0117047   0.0137067  -0.0015916
  137  -0.0000965  -0.0000761   0.0000003   0.0001375   0.0003611  -0.0000660
  138   0.0003172   0.0017762  -0.0000272   0.0001120  -0.0003912   0.0002860
  139   0.0001458   0.0003799  -0.0001031   0.0000998  -0.0001439   0.0001109
  140  -0.0001291  -0.0002848  -0.0000284   0.0002074   0.0005455  -0.0001082
  141  -0.0000501   0.0005531   0.0001546  -0.0000956  -0.0001166   0.0000264
  142  -0.0000063   0.0138438  -0.0001665   0.0575118  -0.0008830  -0.0045443
  143   0.0000392  -0.0014576  -0.0002467   0.0000586  -0.0005213  -0.0006879
  144  -0.0049377   0.0149561  -0.0105614   0.0283406  -0.0130106  -0.0059373
  145  -0.0002870  -0.0008901   0.0004248   0.0002852  -0.0000010  -0.0001918
  146   0.0001649   0.0001181   0.0000039   0.0001877   0.0001931  -0.0000275
  147   0.0001947   0.0002443  -0.0000072   0.0002969   0.0002830  -0.0000178
  148   0.0013791  -0.0053638  -0.0080844   0.0119415  -0.0058572   0.0006791
  149  -0.0008094  -0.0095891  -0.0021524   0.0170333  -0.0073710   0.0028916
  150  -0.0009360  -0.0131789  -0.0029114   0.0233376  -0.0100582   0.0040297
  151   0.0000364  -0.0002083   0.0000395  -0.0003418  -0.0001207  -0.0000158
  152   0.0002007  -0.0000936   0.0000644  -0.0003622   0.0000625   0.0000266
  153   0.0001938   0.0003139   0.0000903  -0.0001752   0.0000211   0.0000394
  154   0.0000655  -0.0002005   0.0000472  -0.0005038  -0.0001726  -0.0000216
  155  -0.0001888  -0.0005869  -0.0001205   0.0000834   0.0000195  -0.0000470
  156   0.0000675  -0.0001184  -0.0005263   0.9870549   0.0156438  -0.0116948
  157   0.0000190  -0.0010718  -0.0004475   0.0374871  -0.0008209  -0.0004568
  158   0.0006307  -0.0145663  -0.0045916  -0.0054616  -0.0096699   0.0025459
  159  -0.0000207  -0.0001800   0.0000793  -0.0000412  -0.0002351   0.0000275
  160   0.0000428  -0.0000230  -0.0000978   0.0002791  -0.0001214  -0.0000317
  161   0.0000257  -0.0000204  -0.0002340   0.0004309  -0.0001492  -0.0000544
  162  -0.0003350  -0.0015097  -0.0009472   0.0031616  -0.0010608   0.0021263
  163   0.0000947  -0.0051229  -0.0005197   0.0038883  -0.0004170   0.0030008
  164   0.0001813  -0.0073128  -0.0002088   0.0053363  -0.0005957   0.0042086
  165  -0.0000319   0.0000769   0.0000739   0.0000951  -0.0000022  -0.0000195
  166   0.0000018   0.0000425  -0.0001211   0.0012066   0.0000623   0.0000001
  167   0.0000221  -0.0000604  -0.0000673  -0.0001296  -0.0000073  -0.0000568
  168  -0.0000470   0.0000867   0.0001158  -0.0000562  -0.0000148  -0.0000396
  169  -0.0000465   0.0001186   0.0000416   0.0011202   0.0000550   0.0001058
  170  -0.0000598   0.0003252  -0.0001349  -0.0025065   0.0001817   0.0003440
  171  -0.0000416   0.0010763   0.0002669   0.0047534   0.0008625   0.0005908
  172   0.0000318  -0.0000180   0.0000020  -0.0014548   0.0000118  -0.0000031
  173   0.0000082   0.0001939  -0.0000428  -0.0001800  -0.0000341  -0.0001629
  174   0.0000176   0.0002860  -0.0000582  -0.0001686  -0.0000462  -0.0002354
  175   0.0000424  -0.0004230  -0.0000376   0.0583156   0.0128176   0.0720683
  176  -0.0000772  -0.0010899  -0.0001544  -0.0002816  -0.0003297   0.0006377
  177   0.0021451   0.0013535   0.0027950   0.0033283   0.0043921   0.0088867
  178  -0.0000060  -0.0001712  -0.0000459   0.0008538  -0.0000733  -0.0010990
  179  -0.0000235  -0.0001096  -0.0000002  -0.0005111  -0.0000733   0.0000216
  180  -0.0000273  -0.0001512   0.0000227  -0.0007914  -0.0001049   0.0001042
  181   0.0012399   0.0038905   0.0002034  -0.0015359  -0.0008468  -0.0014132
  182   0.0003501   0.0008905   0.0008345  -0.0006040   0.0019124   0.0002155
  183   0.0003935   0.0010684   0.0009367  -0.0007265   0.0028257   0.0003744
  184   0.0000084   0.0000062  -0.0000444   0.0001459   0.0000811  -0.0001042
  185   0.0000243   0.0000992   0.0000597  -0.0004300   0.0000281  -0.0001925
  186  -0.0000063   0.0000146   0.0000002  -0.0000836   0.0000154   0.0002797
  187   0.0000106  -0.0000040  -0.0000580   0.0002514   0.0001141  -0.0000571
  188   0.0000211   0.0000483   0.0000299  -0.0001856  -0.0000157  -0.0006162
  189   0.0000750   0.0004165   0.0000698  -0.0001936   0.0003096  -0.0003969
  190   0.0001349   0.0008331   0.0001178  -0.0005962   0.0003949  -0.0009634
  191  -0.0000507  -0.0000953   0.0000407  -0.0001951   0.0002056   0.0004255
  192   0.0000076   0.0000135  -0.0000191   0.0002508  -0.0000522   0.0000233
  193   0.0000179   0.0000202  -0.0000051   0.0003664  -0.0000920   0.0000078
  194   0.0001135   0.0002513   0.0000598   0.0037645   0.2266174   0.9616545
  195   0.0000733  -0.0006454   0.0001828  -0.0003175   0.0059366   0.0357552
  196  -0.0042586  -0.0112830   0.0016266   0.0020932   0.0002822  -0.0228278
  197  -0.0000526   0.0001219   0.0000400  -0.0000296  -0.0007156   0.0003385
  198  -0.0000360  -0.0000250   0.0000396  -0.0000691  -0.0006058   0.0001553
  199  -0.0000434  -0.0000437   0.0000459  -0.0000969  -0.0008124   0.0001917
  200   0.0010605  -0.0009769   0.0011238  -0.0011980   0.0014743   0.0022222
  201  -0.0004847  -0.0009936   0.0003465   0.0015686  -0.0008853  -0.0011565
  202  -0.0007983  -0.0013911   0.0005125   0.0023125  -0.0013925  -0.0017758
  203  -0.0000348  -0.0000419   0.0000139  -0.0000698  -0.0001267   0.0000530
  204  -0.0000044   0.0002309  -0.0000053   0.0000831  -0.0002629   0.0014318
  205  -0.0000012   0.0001041   0.0000037  -0.0000331  -0.0001147   0.0001355
  206  -0.0000555  -0.0000740   0.0000123  -0.0001183  -0.0001712  -0.0000980
  207   0.0000002  -0.0000074  -0.0000154   0.0001300   0.0000279   0.0007949
  208  -0.0000160   0.0003814  -0.0000782   0.0004221  -0.0007478  -0.0029168
  209   0.0001640   0.0011388  -0.0002018   0.0007489  -0.0000066   0.0043538
  210  -0.0000026   0.0001110  -0.0000520  -0.0000686   0.0002677   0.0006674
  211   0.0000096   0.0000265  -0.0000118  -0.0000711   0.0001655  -0.0007221
  212   0.0000175   0.0000334  -0.0000227  -0.0000966   0.0002197  -0.0010726
  213   0.0004745   0.0164294   0.0000497  -0.0174374   0.9640627  -0.2265077
  214   0.0008632  -0.0008204   0.0001943  -0.0020804   0.0355418  -0.0108466
  215   0.0120469   0.0246984  -0.0028494  -0.0116947  -0.0049327   0.0153529
  216  -0.0000766   0.0005469  -0.0000301   0.0002451   0.0000157   0.0004194
  217   0.0001710  -0.0004573  -0.0000453  -0.0000682   0.0003974   0.0005845
  218   0.0002403  -0.0006953  -0.0000668  -0.0001158   0.0005658   0.0007979
  219  -0.0037060  -0.0092461   0.0023127   0.0020282  -0.0033644  -0.0005718
  220   0.0014110  -0.0003748   0.0011461  -0.0022704   0.0032145   0.0018036
  221   0.0023965   0.0002615   0.0014494  -0.0034033   0.0048759   0.0025901
  222   0.0000600   0.0002692   0.0000110  -0.0000157   0.0000861  -0.0002211
  223   0.0000487  -0.0005804   0.0000066   0.0000072   0.0011226  -0.0007788
  224   0.0000363  -0.0001875   0.0000235  -0.0000085  -0.0001529  -0.0000135
  225   0.0000823   0.0004189   0.0000186  -0.0000229  -0.0000840  -0.0002040
  226  -0.0000253  -0.0001263  -0.0000338   0.0000185   0.0010759  -0.0005116
  227   0.0002001   0.0006206  -0.0002334   0.0002328  -0.0025619   0.0005224
  228  -0.0002739   0.0005099  -0.0005170   0.0008775   0.0043452  -0.0024001
  229   0.0000277  -0.0002296  -0.0000271  -0.0000710   0.0013929  -0.0006582
  230   0.0000073   0.0001568  -0.0000181   0.0000474  -0.0000665  -0.0003224
  231  -0.0000044   0.0002234  -0.0000234   0.0000750  -0.0001972  -0.0004118
  232  -0.0022757   0.0007939  -0.0006579   0.0004603  -0.0003649   0.0000811
  233   0.0055620   0.0019760  -0.0013744   0.0006220  -0.0005520   0.0000868
  234  -0.0003262   0.0002188   0.0001655   0.0000791  -0.0000413  -0.0000269
  235   0.0009148   0.0001143   0.0000391   0.0000694   0.0000317   0.0000013
  236   0.0014209   0.0001243   0.0000647   0.0000781   0.0000539   0.0000046
  237   0.0003274  -0.0000201  -0.0001894  -0.0000399   0.0000056   0.0000289
  238  -0.0000411  -0.0000024  -0.0004602  -0.0004003  -0.0000332  -0.0000337
  239  -0.0000395   0.0000015   0.0000561  -0.0000374  -0.0000028  -0.0000035
  240  -0.0000301   0.0000073   0.0000293   0.0000466   0.0000011   0.0000014
  241   0.0000619  -0.0000009  -0.0000583  -0.0000319  -0.0000026   0.0000018
  242  -0.0000004  -0.0001063  -0.0003175  -0.0000248  -0.0000287  -0.0000514
  243  -0.0003191   0.0000839  -0.0007398   0.0005872   0.0002556  -0.0002598
  244   0.0001461  -0.0000445   0.0000669  -0.0001067   0.0000003  -0.0000019
  245  -0.0000525  -0.0000032   0.0002570   0.0000761   0.0000189  -0.0000068
  246   0.0000388   0.0000181  -0.0001347   0.0000274   0.0000187  -0.0000000
  247   0.0000007   0.0000000   0.0003366  -0.0001559  -0.0000112  -0.0000127
  248   0.0000002   0.0000084   0.0002919  -0.0000120  -0.0000360   0.0000131
  249  -0.0000137  -0.0000021   0.0000522   0.0000491  -0.0000041   0.0000109
  250  -0.0000144   0.0000022   0.0000264  -0.0000499  -0.0000080  -0.0000071
  251  -0.0000797   0.0000060   0.0000466   0.0000152   0.0000013  -0.0000063
  252  -0.0000159  -0.0000028   0.0000428   0.0000186   0.0000025   0.0000034
  253  -0.0001979  -0.0000302   0.0005821   0.0002225   0.0000348   0.0000402
  254   0.0009800   0.0000850  -0.0027818  -0.0009306  -0.0001825  -0.0001768
  255   0.0000219  -0.0000068   0.0000592   0.0000112   0.0000017   0.0000037
  256   0.0000424  -0.0000007   0.0000245  -0.0000004  -0.0000033  -0.0000011
  257  -0.0000067   0.0000001  -0.0000792  -0.0000261  -0.0000020  -0.0000038
  258   0.0000071   0.0000859  -0.0000657  -0.0000834  -0.0000075  -0.0000291
  259  -0.0002854  -0.0000112  -0.0001599   0.0000503   0.0000270   0.0000159
  260  -0.0001288  -0.0000153   0.0012790   0.0003416   0.0000642   0.0000607
  261  -0.0000148   0.0000004  -0.0000007   0.0000050   0.0000012  -0.0000000
  262   0.0000210   0.0000003   0.0000098  -0.0000019  -0.0000022   0.0000002
  263  -0.0000005   0.0000017  -0.0000540  -0.0000175  -0.0000021  -0.0000029
  264   0.0000078  -0.0000073   0.0000048   0.0000041   0.0000011   0.0000012
  265   0.0000046   0.0000019  -0.0000457  -0.0000110  -0.0000005  -0.0000012
  266   0.0000369   0.0000162   0.0002830   0.0000603   0.0000251   0.0000139
  267  -0.0002017   0.0000252  -0.0004423  -0.0000664  -0.0000301  -0.0000297
  268   0.0000277   0.0000113   0.0001171  -0.0000066   0.0000068  -0.0000005
  269   0.0000476   0.0000005   0.0000492   0.0000018   0.0000008   0.0000002
  270  -0.0000477   0.0000082   0.0001872   0.0000345  -0.0000009  -0.0000000
  271   0.0000000   0.0000000   0.0000000   0.0000000   0.0000000   0.0000000
  272   0.0000000   0.0000000   0.0000000   0.0000000   0.0000000   0.0000000
  273   0.0000000   0.0000000   0.0000000   0.0000000   0.0000000   0.0000000
  274   0.0000000   0.0000000   0.0000000   0.0000000   0.0000000   0.0000000
  275   0.0000000   0.0000000   0.0000000   0.0000000   0.0000000   0.0000000
  276   0.0000000   0.0000000   0.0000000   0.0000000   0.0000000   0.0000000
  277   0.0000000   0.0000000   0.0000000   0.0000000   0.0000000   0.0000000
  278   0.0000000   0.0000000   0.0000000   0.0000000   0.0000000   0.0000000
  279   0.0000000   0.0000000   0.0000000   0.0000000   0.0000000   0.0000000
  280   0.0000000   0.0000000   0.0000000   0.0000000   0.0000000   0.0000000
  281   0.0000000   0.0000000   0.0000000   0.0000000   0.0000000   0.0000000
  282   0.0000000   0.0000000   0.0000000   0.0000000   0.0000000   0.0000000
  283   0.0000000   0.0000000   0.0000000   0.0000000   0.0000000   0.0000000
  284   0.0000000   0.0000000   0.0000000   0.0000000   0.0000000   0.0000000
  285   0.0000000   0.0000000   0.0000000   0.0000000   0.0000000   0.0000000
  286   0.0000000   0.0000000   0.0000000   0.0000000   0.0000000   0.0000000
  287   0.0000000   0.0000000   0.0000000   0.0000000   0.0000000   0.0000000
  288   0.0000000   0.0000000   0.0000000   0.0000000   0.0000000   0.0000000
  289   0.0000000   0.0000000   0.0000000   0.0000000   0.0000000   0.0000000
  290   0.0000000   0.0000000   0.0000000   0.0000000   0.0000000   0.0000000
  291   0.0000000   0.0000000   0.0000000   0.0000000   0.0000000   0.0000000
  292   0.0000000   0.0000000   0.0000000   0.0000000   0.0000000   0.0000000
  293   0.0000000   0.0000000   0.0000000   0.0000000   0.0000000   0.0000000
  294   0.0000000   0.0000000   0.0000000   0.0000000   0.0000000   0.0000000
  295   0.0000000   0.0000000   0.0000000   0.0000000   0.0000000   0.0000000
  296   0.0000000   0.0000000   0.0000000   0.0000000   0.0000000   0.0000000
  297   0.0000000   0.0000000   0.0000000   0.0000000   0.0000000   0.0000000
  298   0.0000000   0.0000000   0.0000000   0.0000000   0.0000000   0.0000000
  299   0.0000000   0.0000000   0.0000000   0.0000000   0.0000000   0.0000000
  300   0.0000000   0.0000000   0.0000000   0.0000000   0.0000000   0.0000000
  301   0.0000000   0.0000000   0.0000000   0.0000000   0.0000000   0.0000000
  302   0.0000000   0.0000000   0.0000000   0.0000000   0.0000000   0.0000000
           13          14          15          16          17          18
    1  -0.0000048  -0.0000226   0.0000111   0.0176630  -0.0151287   0.0038574
    2  -0.0001816  -0.0003484   0.0001616   0.0354902  -0.0306864   0.0077312
    3   0.0020336   0.0021101  -0.0007486   0.0153810  -0.0173820   0.0013243
    4  -0.0000217   0.0000645  -0.0000262  -0.0102585   0.0056852  -0.0014319
    5  -0.0000333  -0.0000372  -0.0000067   0.0013101  -0.0000035   0.0004124
    6   0.0000154   0.0000325   0.0000047  -0.0033783   0.0038628   0.0010196
    7   0.0003449   0.0010280  -0.0002674   0.0032081  -0.0031784  -0.0000088
    8  -0.0004705  -0.0005128   0.0000063   0.0002147  -0.0012695   0.0000276
    9  -0.0003397   0.0002219   0.0001786   0.0001733  -0.0002275   0.0004106
   10  -0.0000251  -0.0000160   0.0000040  -0.0004411   0.0001069  -0.0000284
   11  -0.0000002  -0.0000110   0.0000072  -0.0000988   0.0001369  -0.0000023
   12  -0.0000212  -0.0000524   0.0000001  -0.0003848  -0.0000471  -0.0000659
   13  -0.0000265  -0.0000057   0.0000063   0.0004426  -0.0005749  -0.0000832
   14  -0.0000043   0.0000254  -0.0000094   0.0011432  -0.0005719   0.0001485
   15   0.0001811   0.0002245   0.0000158  -0.0283920   0.0016917  -0.0053807
   16  -0.0005874  -0.0010564  -0.0001057   0.0592395  -0.0050866   0.0111240
   17   0.0020346   0.0030796   0.0017254  -0.0307601   0.0212033  -0.0010113
   18  -0.0002515  -0.0002062   0.0000036   0.0051736   0.0146224   0.0008517
   19   0.0000251  -0.0000554   0.0000349   0.0010767  -0.0071523   0.0026185
   20   0.0000265   0.0000330  -0.0000072   0.0244366  -0.0030321  -0.0015400
   21   0.0035518   0.0033438  -0.0001687  -0.0095102   0.0032506  -0.0038690
   22   0.0011194   0.0014575  -0.0000119   0.0008335   0.0008127   0.0011792
   23  -0.0002670  -0.0026829  -0.0005080  -0.0034611   0.0100310   0.0000215
   24   0.0001116   0.0001094   0.0000067  -0.0002885   0.0000167   0.0003075
   25  -0.0000621  -0.0000807   0.0000162  -0.0006575  -0.0011674  -0.0003086
   26  -0.0000419   0.0000265  -0.0000028   0.0027395  -0.0000244  -0.0002385
   27  -0.0000004  -0.0001955  -0.0000175   0.0020269   0.0022263  -0.0003456
   28  -0.0000975  -0.0000181  -0.0000032   0.0018450  -0.0002934   0.0001391
   29   0.0000543   0.0001045   0.0000088  -0.1512632  -0.0542767   0.0011543
   30  -0.0002993  -0.0004779  -0.0000575   0.2993864   0.1088677  -0.0024549
   31   0.0000419   0.0019578   0.0002583   0.0425541  -0.0047391   0.0036118
   32  -0.0000065  -0.0000814   0.0000136   0.0422137   0.1884541  -0.0035323
   33  -0.0000829  -0.0001472   0.0000016  -0.0079390  -0.1250740   0.0021144
   34   0.0001710   0.0002953   0.0000161   0.0737551  -0.0393053  -0.0024904
   35  -0.0010295   0.0008685  -0.0000610  -0.0107279   0.0244939   0.0011925
   36   0.0010647  -0.0005945   0.0001366   0.0002919  -0.0120776  -0.0002460
   37   0.0011395  -0.0009420  -0.0000988  -0.0187734   0.0099996  -0.0022931
   38   0.0000152  -0.0000410  -0.0000038  -0.0232230  -0.0111030   0.0003035
   39   0.0000392  -0.0000714  -0.0000084   0.0084498  -0.0129578  -0.0000534
   40  -0.0000124  -0.0000998   0.0000085  -0.0032907  -0.0160637   0.0004549
   41  -0.0000044   0.0001157  -0.0000012  -0.0063504   0.0158249   0.0000488
   42   0.0000063   0.0001242  -0.0000005   0.0095521   0.0101002  -0.0001790
   43  -0.0000000   0.0000190   0.0000011   0.1526933   0.2096243  -0.0042615
   44  -0.0000125   0.0003054   0.0000105   0.2998890   0.4137576  -0.0082287
   45   0.0005289  -0.0016930  -0.0000073   0.1677176   0.2407824  -0.0070325
   46  -0.0000201  -0.0000513   0.0000046  -0.0817205  -0.0897760   0.0021790
   47   0.0000232  -0.0000764   0.0000146   0.0489680   0.0496726  -0.0008709
   48   0.0000102   0.0000299  -0.0000022  -0.0064985  -0.0244341  -0.0003710
   49  -0.0000336   0.0005703  -0.0000217  -0.0178380  -0.0227304   0.0011521
   50  -0.0001012  -0.0000518  -0.0000589   0.0120277   0.0114050  -0.0002968
   51  -0.0001490   0.0002250   0.0000181   0.0017625  -0.0097270   0.0001272
   52   0.0000182   0.0000288   0.0000014  -0.0081421  -0.0082234   0.0001907
   53  -0.0000098  -0.0000112   0.0000034  -0.0007004  -0.0022253  -0.0000096
   54  -0.0000093   0.0000139   0.0000010  -0.0057988  -0.0050490   0.0001495
   55   0.0000047  -0.0000422   0.0000003   0.0008724   0.0040531  -0.0000311
   56   0.0000048  -0.0000117   0.0000029   0.0042413   0.0051049  -0.0001363
   57  -0.0024717  -0.0080431   0.0000998  -0.0063235  -0.0001009  -0.0131674
   58  -0.0000976  -0.0003798   0.0000977   0.0108411  -0.0004098   0.0244097
   59  -0.0110271   0.0065421  -0.0049410   0.0081457   0.0021709  -0.0068355
   60  -0.0003843  -0.0006598  -0.0000702  -0.0012275   0.0016454   0.0095089
   61   0.0001261  -0.0000719  -0.0000159  -0.0043917  -0.0006280  -0.0021063
   62   0.0002787   0.0002116   0.0000210   0.0045011  -0.0002501  -0.0015080
   63  -0.0039036   0.0042738  -0.0017428  -0.0010091   0.0028050  -0.0031091
   64   0.0000480   0.0030012   0.0007640  -0.0049820  -0.0003604  -0.0036438
   65  -0.0017244  -0.0010650   0.0004629   0.0083523  -0.0032116   0.0000708
   66   0.0000026   0.0001509  -0.0000013   0.0004239  -0.0002471  -0.0001689
   67   0.0000296  -0.0000470   0.0000242  -0.0011986  -0.0000563  -0.0001539
   68   0.0002005   0.0003207   0.0000284   0.0001455  -0.0001139  -0.0007353
   69   0.0001086   0.0004931   0.0000387  -0.0003215   0.0002276  -0.0007230
   70  -0.0002073  -0.0007015  -0.0000246  -0.0005280  -0.0000282   0.0011822
   71   0.0007668  -0.0002505   0.0000472   0.0024649  -0.0002678   0.0064127
   72   0.0016043  -0.0007656   0.0001481   0.0013330  -0.0018601   0.0030329
   73   0.0001712   0.0003661   0.0000332  -0.0000153  -0.0000214   0.0002326
   74  -0.0001061  -0.0001269   0.0000074  -0.0006603   0.0002681  -0.0008867
   75   0.0000786   0.0000197   0.0000207  -0.0004092  -0.0000521  -0.0007053
   76  -0.0002672   0.0000643   0.0001556   0.0022918  -0.0006044   0.0058104
   77   0.0009770   0.0002606  -0.0000099   0.0019203  -0.0001155   0.0003363
   78   0.0002721   0.0002628  -0.0000090   0.0002078  -0.0001213   0.0007050
   79  -0.0000236  -0.0002699  -0.0000159   0.0000218  -0.0000008   0.0000049
   80  -0.0000186  -0.0000933  -0.0000589   0.0003210   0.0001067   0.0007365
   81   0.3116828   0.9399967  -0.0105024  -0.0019778  -0.0017923  -0.0682256
   82   0.0101737   0.0366319  -0.0004810   0.0021321   0.0026475   0.1277584
   83  -0.0065459  -0.0191278  -0.0002363   0.0129887  -0.0013213   0.0473726
   84  -0.0000961   0.0001905   0.0001032  -0.0007237   0.0003331   0.0537039
   85   0.0002879  -0.0004964  -0.0000029  -0.0000360  -0.0004301  -0.0000916
   86   0.0006780  -0.0001937  -0.0000166   0.0011427   0.0004811  -0.0038496
   87  -0.0096754   0.0084087  -0.0060065  -0.0036594   0.0027650  -0.0007179
   88   0.0029329  -0.0037129  -0.0003468  -0.0062477   0.0005707   0.0063424
   89   0.0038947  -0.0073910   0.0001631  -0.0081369   0.0036922   0.0092793
   90   0.0004081  -0.0000012   0.0000746  -0.0000775   0.0000978   0.0013362
   91  -0.0005122   0.0011177  -0.0000420   0.0000742  -0.0000711   0.0044254
   92  -0.0004090  -0.0000015   0.0000085  -0.0000211   0.0000438  -0.0014731
   93   0.0005507  -0.0002501   0.0000903  -0.0002959   0.0000412   0.0007201
   94   0.0003032   0.0008811  -0.0000410   0.0002232   0.0000992   0.0056725
   95  -0.0051552  -0.0154223   0.0001290  -0.0010141  -0.0017077  -0.1111396
   96  -0.0010729  -0.0034228   0.0003233   0.0019404   0.0023056   0.2099538
   97   0.0076131   0.0069175   0.0034596   0.0042745  -0.0003681  -0.0021989
   98   0.0003103   0.0011673  -0.0000466  -0.0006600   0.0000333   0.0487551
   99   0.0000880   0.0004096  -0.0000223  -0.0004302  -0.0008339  -0.0439463
  100   0.0000668   0.0006088  -0.0000351  -0.0001957  -0.0004860  -0.0673389
  101   0.0000600  -0.0038329  -0.0006869  -0.0025575   0.0004684   0.0097024
  102  -0.0033357   0.0011595  -0.0008105  -0.0015974  -0.0005300   0.0031245
  103  -0.0040897   0.0022777  -0.0011657  -0.0005434   0.0004508   0.0030853
  104  -0.0000324  -0.0001825  -0.0000003   0.0000824   0.0000664  -0.0036412
  105   0.0000763  -0.0004832  -0.0000043   0.0000356   0.0000659   0.0079589
  106   0.0001474  -0.0001383   0.0000181  -0.0000672   0.0000081  -0.0015137
  107  -0.0000622  -0.0002986   0.0000049   0.0000442  -0.0000160  -0.0070422
  108  -0.0002406  -0.0001506  -0.0000238   0.0001161   0.0000827   0.0092488
  109   0.0001066   0.0000328   0.0000041   0.0005512   0.0018862   0.2092088
  110   0.0013324   0.0003241   0.0000536   0.0013807   0.0037802   0.4096960
  111  -0.0093046  -0.0037592   0.0000168  -0.0032500   0.0013749   0.2345008
  112   0.0000809   0.0001111   0.0000031   0.0002920   0.0007521   0.0594921
  113   0.0001939  -0.0000174   0.0000180   0.0001230   0.0002096   0.0209607
  114   0.0002002  -0.0000291   0.0000264   0.0000058  -0.0000052   0.0163587
  115  -0.0006173   0.0000087   0.0003150  -0.0000671  -0.0004055  -0.0560743
  116   0.0018017   0.0012643   0.0000248   0.0013594   0.0001675  -0.0150826
  117   0.0021331   0.0017621   0.0000347   0.0013549  -0.0002958  -0.0165060
  118   0.0000943  -0.0000383  -0.0000075  -0.0000139  -0.0000111   0.0006700
  119  -0.0001113  -0.0000567  -0.0000204   0.0000011   0.0000843   0.0100953
  120  -0.0001168  -0.0001121   0.0000020  -0.0000259  -0.0000024   0.0003648
  121   0.0001142  -0.0000806  -0.0000024  -0.0000158  -0.0000296  -0.0007651
  122   0.0001060   0.0001673  -0.0000130   0.0000353   0.0000760   0.0065907
  123   0.0006243   0.0000168  -0.0000761   0.0002811   0.0008469   0.1026981
  124  -0.0002219  -0.0000771  -0.0001209  -0.0000847   0.0000138   0.0052568
  125   0.0001062   0.0000732   0.0000212  -0.0000164  -0.0001247  -0.0144440
  126  -0.0000451  -0.0000000  -0.0000019  -0.0000555  -0.0000467  -0.0026641
  127  -0.0000548  -0.0000030   0.0000068  -0.0000208  -0.0000154  -0.0049238
  128  -0.0130880   0.0039974   0.0002250  -0.0003183  -0.0010547  -0.1203620
  129  -0.0015642   0.0016780  -0.0008054   0.0009085   0.0021384   0.2314042
  130   0.0002655  -0.0125235  -0.0059395  -0.0072724  -0.0003840  -0.0187769
  131   0.0009691  -0.0004129   0.0001610  -0.0000792  -0.0002461  -0.0100442
  132   0.0001087  -0.0000549   0.0000626   0.0001120   0.0004403   0.0484912
  133   0.0000652  -0.0000665   0.0000830   0.0002071   0.0006444   0.0685279
  134   0.0110133  -0.0001195   0.0012305   0.0035274   0.0010397   0.0342114
  135   0.0031015   0.0080334   0.0000017   0.0042336  -0.0003327  -0.0082674
  136   0.0036850   0.0112709  -0.0001161   0.0056214  -0.0000072  -0.0128749
  137  -0.0000302  -0.0001085   0.0000362  -0.0000380   0.0000177   0.0017140
  138  -0.0000638   0.0001056   0.0000387   0.0000466   0.0001357   0.0151135
  139   0.0004346  -0.0000585   0.0000318   0.0000546   0.0000489   0.0048330
  140   0.0000731  -0.0001818   0.0000577  -0.0000335  -0.0000024   0.0014038
  141  -0.0007819   0.0002015  -0.0000362  -0.0000419   0.0000108   0.0021688
  142   0.9386020  -0.3106199   0.0173490  -0.0004834  -0.0009267  -0.0719273
  143   0.0339679  -0.0139661   0.0007310   0.0009699   0.0017703   0.1378827
  144   0.0017014   0.0250170  -0.0039643  -0.0027784   0.0058842   0.0745140
  145   0.0003757   0.0002775  -0.0003616  -0.0002469   0.0001891   0.0399338
  146  -0.0001627  -0.0002429  -0.0001551   0.0002898   0.0002243   0.0192791
  147  -0.0002046  -0.0003447  -0.0002063   0.0005155   0.0005958   0.0242113
  148   0.0057967  -0.0008405   0.0073753   0.0081504  -0.0011581   0.0295556
  149   0.0004598  -0.0133634   0.0032477  -0.0063480   0.0004212   0.0078791
  150   0.0004285  -0.0183943   0.0040856  -0.0094239  -0.0005887   0.0086248
  151   0.0003597   0.0001567  -0.0000286   0.0000459  -0.0000251   0.0017467
  152   0.0012282  -0.0011404   0.0002525  -0.0000037   0.0001376   0.0058359
  153   0.0001188  -0.0004225   0.0001075  -0.0000368  -0.0000039  -0.0007322
  154   0.0003208   0.0002384  -0.0000533   0.0000742  -0.0000473   0.0013201
  155   0.0006997  -0.0000074  -0.0000012   0.0000266   0.0000556   0.0052921
  156  -0.0535984   0.0169195  -0.0586705  -0.0000972  -0.0002206  -0.0198223
  157  -0.0038192   0.0008235  -0.0045451   0.0000166   0.0005147   0.0377939
  158   0.0009098  -0.0314866   0.0175643  -0.0054205  -0.0020719  -0.0014429
  159  -0.0003374   0.0002408  -0.0005378  -0.0000022   0.0001003   0.0123427
  160  -0.0007438   0.0000059   0.0006159   0.0000101   0.0000951   0.0061672
  161  -0.0009625   0.0000251   0.0008872   0.0000910   0.0001662   0.0079579
  162  -0.0050391  -0.0123582   0.0020631  -0.0047292  -0.0006035  -0.0034051
  163   0.0000963  -0.0027220   0.0026036   0.0002763  -0.0011545   0.0046211
  164   0.0001490  -0.0034131   0.0037178   0.0003852  -0.0012647   0.0070443
  165  -0.0003335   0.0001528   0.0001460  -0.0000470  -0.0000147   0.0007652
  166  -0.0007097   0.0001420  -0.0005490   0.0000268   0.0000025   0.0018737
  167  -0.0001397   0.0000086  -0.0000180   0.0000558   0.0000185   0.0006010
  168  -0.0004209   0.0001848   0.0002853  -0.0000608  -0.0000004   0.0009621
  169  -0.0002316   0.0000543  -0.0003914  -0.0000785   0.0000114   0.0002196
  170  -0.0003255  -0.0009667   0.0001689  -0.0002116   0.0001293   0.0057319
  171  -0.0024572  -0.0008097  -0.0012970  -0.0017308  -0.0003487   0.0000582
  172   0.0003291  -0.0000878   0.0004998   0.0000178  -0.0000095   0.0012923
  173   0.0001906  -0.0000374  -0.0002606   0.0000017   0.0000421   0.0001388
  174   0.0002740  -0.0000155  -0.0004097   0.0000040   0.0000329   0.0001059
  175  -0.0160645   0.0163577   0.9860019  -0.0000291  -0.0000839  -0.0115459
  176  -0.0006801   0.0004885   0.0365853   0.0001817   0.0000812   0.0217608
  177   0.0051260   0.0171175  -0.0260193   0.0047328   0.0001856   0.0115222
  178  -0.0002912  -0.0001067   0.0000025  -0.0000130  -0.0000020   0.0025196
  179   0.0000806   0.0000368   0.0000046   0.0000382   0.0000410   0.0051320
  180   0.0001204   0.0000574   0.0000114   0.0000473   0.0000489   0.0071863
  181   0.0024830   0.0025519  -0.0027500   0.0001283   0.0007509  -0.0042389
  182   0.0021152   0.0034548  -0.0018928   0.0008234   0.0001937   0.0036904
  183   0.0030222   0.0048822  -0.0025866   0.0013238   0.0001360   0.0053142
  184   0.0000065  -0.0000287   0.0001152   0.0000043  -0.0000003  -0.0001670
  185   0.0002136   0.0000176   0.0014111  -0.0000160   0.0000137   0.0010431
  186   0.0001156  -0.0000062   0.0000839   0.0000029   0.0000067   0.0000962
  187  -0.0000073  -0.0000574  -0.0000108   0.0000028   0.0000043  -0.0003702
  188  -0.0000276   0.0000339   0.0008701  -0.0000067  -0.0000037   0.0006175
  189   0.0005029   0.0001797  -0.0030114   0.0000112   0.0000740   0.0028383
  190   0.0008865   0.0001817   0.0044656  -0.0000875   0.0001926   0.0005052
  191  -0.0000956   0.0000046  -0.0006133  -0.0000033  -0.0000106   0.0003795
  192  -0.0000267  -0.0000446  -0.0007745  -0.0000040   0.0000013   0.0002613
  193  -0.0000494  -0.0000741  -0.0010591  -0.0000164   0.0000065   0.0003658
  194   0.0053911  -0.0021278  -0.0730179  -0.0000168  -0.0000856  -0.0136501
  195  -0.0005855   0.0001920  -0.0048784   0.0000576   0.0001036   0.0252222
  196  -0.0112913  -0.0117473   0.0144675  -0.0049729  -0.0009731  -0.0020337
  197   0.0000888  -0.0000356   0.0010787  -0.0000478  -0.0000049  -0.0018908
  198  -0.0000826   0.0000263   0.0001383   0.0000027   0.0000434   0.0063298
  199  -0.0001201   0.0000507   0.0001261   0.0000116   0.0000513   0.0090995
  200  -0.0014320   0.0037720   0.0001737   0.0002350   0.0001483  -0.0036555
  201  -0.0018583  -0.0018194   0.0010055  -0.0010120  -0.0000901  -0.0023748
  202  -0.0025896  -0.0029018   0.0014351  -0.0015522  -0.0000395  -0.0029171
  203  -0.0000235  -0.0000281  -0.0000639  -0.0000125   0.0000021   0.0004814
  204   0.0000648  -0.0000478  -0.0003834  -0.0000102   0.0000095   0.0014617
[...]
   iter:        31 vec:         1 curr_rmsd_alph: 1.631257e-02
   iter:        32 vec:         1 curr_rmsd_alph: 1.352278e-02
   iter:        33 vec:         1 curr_rmsd_alph: 1.121046e-02
   iter:        34 vec:         1 curr_rmsd_alph: 9.294294e-03
   iter:        35 vec:         1 curr_rmsd_alph: 7.705945e-03
   iter:        36 vec:         1 curr_rmsd_alph: 6.389487e-03
   iter:        37 vec:         1 curr_rmsd_alph: 5.298146e-03
   iter:        38 vec:         1 curr_rmsd_alph: 4.393480e-03
   iter:        39 vec:         1 curr_rmsd_alph: 3.643442e-03
   iter:        40 vec:         1 curr_rmsd_alph: 3.021615e-03
   iter:        41 vec:         1 curr_rmsd_alph: 2.506022e-03
   iter:        42 vec:         1 curr_rmsd_alph: 2.078512e-03
   iter:        43 vec:         1 curr_rmsd_alph: 1.724005e-03
   iter:        44 vec:         1 curr_rmsd_alph: 1.430028e-03
   iter:        45 vec:         1 curr_rmsd_alph: 1.186229e-03
   iter:        46 vec:         1 curr_rmsd_alph: 9.840364e-04
   iter:        47 vec:         1 curr_rmsd_alph: 8.163399e-04
   iter:        48 vec:         1 curr_rmsd_alph: 6.772494e-04
   iter:        49 vec:         1 curr_rmsd_alph: 5.618788e-04
   iter:        50 vec:         1 curr_rmsd_alph: 4.661797e-04
   iter:        51 vec:         1 curr_rmsd_alph: 3.867941e-04
   iter:        52 vec:         1 curr_rmsd_alph: 3.209387e-04
   iter:        53 vec:         1 curr_rmsd_alph: 2.663051e-04
   iter:        54 vec:         1 curr_rmsd_alph: 2.209794e-04
   iter:        55 vec:         1 curr_rmsd_alph: 1.833743e-04
   iter:        56 vec:         1 curr_rmsd_alph: 1.521736e-04
   iter:        57 vec:         1 curr_rmsd_alph: 1.262856e-04
   iter:        58 vec:         1 curr_rmsd_alph: 1.048050e-04
   iter:        59 vec:         1 curr_rmsd_alph: 8.698073e-05
   iter:        60 vec:         1 curr_rmsd_alph: 7.218998e-05
   iter:        61 vec:         1 curr_rmsd_alph: 5.991607e-05
   iter:        62 vec:         1 curr_rmsd_alph: 4.973039e-05
   iter:        63 vec:         1 curr_rmsd_alph: 4.127739e-05
   iter:        64 vec:         1 curr_rmsd_alph: 3.426212e-05
   iter:        65 vec:         1 curr_rmsd_alph: 2.843986e-05
   iter:        66 vec:         1 curr_rmsd_alph: 2.360759e-05
   iter:        67 vec:         1 curr_rmsd_alph: 1.959687e-05
   iter:        68 vec:         1 curr_rmsd_alph: 1.626792e-05
   iter:        69 vec:         1 curr_rmsd_alph: 1.350479e-05
   iter:        70 vec:         1 curr_rmsd_alph: 1.121123e-05
   iter:        71 vec:         1 curr_rmsd_alph: 9.307405e-06
   iter:        72 vec:         1 curr_rmsd_alph: 7.727045e-06
   iter:        73 vec:         1 curr_rmsd_alph: 6.415160e-06
   iter:        74 vec:         1 curr_rmsd_alph: 5.326115e-06
   iter:        75 vec:         1 curr_rmsd_alph: 4.422037e-06
   iter:        76 vec:         1 curr_rmsd_alph: 3.671494e-06
   iter:        77 vec:         1 curr_rmsd_alph: 3.048398e-06
   iter:        78 vec:         1 curr_rmsd_alph: 2.531096e-06
   iter:        79 vec:         1 curr_rmsd_alph: 2.101617e-06
   iter:        80 vec:         1 curr_rmsd_alph: 1.745043e-06
   iter:        81 vec:         1 curr_rmsd_alph: 1.448993e-06
   iter:        82 vec:         1 curr_rmsd_alph: 1.203190e-06
   iter:        83 vec:         1 curr_rmsd_alph: 9.990999e-07
   iter:        84 vec:         1 curr_rmsd_alph: 8.296421e-07
   iter:        85 vec:         1 curr_rmsd_alph: 6.889370e-07
   iter:        86 vec:         1 curr_rmsd_alph: 5.721039e-07
   iter:        87 vec:         1 curr_rmsd_alph: 4.750911e-07
   iter:        88 vec:         1 curr_rmsd_alph: 3.945347e-07
   iter:        89 vec:         1 curr_rmsd_alph: 3.276421e-07
   iter:        90 vec:         1 curr_rmsd_alph: 2.720948e-07
   iter:        91 vec:         1 curr_rmsd_alph: 2.259679e-07
   iter:        92 vec:         1 curr_rmsd_alph: 1.876632e-07
   iter:        93 vec:         1 curr_rmsd_alph: 1.558537e-07
   iter:        94 vec:         1 curr_rmsd_alph: 1.294376e-07
   iter:        95 vec:         1 curr_rmsd_alph: 1.075002e-07
   iter:        96 vec:         1 curr_rmsd_alph: 8.928183e-08
   iter:        97 vec:         1 curr_rmsd_alph: 7.415188e-08
   iter:        98 vec:         1 curr_rmsd_alph: 6.158660e-08
   iter:        99 vec:         1 curr_rmsd_alph: 5.115111e-08
   iter:       100 vec:         1 curr_rmsd_alph: 4.248432e-08
   iter:       101 vec:         1 curr_rmsd_alph: 3.528637e-08
   iter:       102 vec:         1 curr_rmsd_alph: 2.930823e-08
   iter:       103 vec:         1 curr_rmsd_alph: 2.434315e-08
   iter:       104 vec:         1 curr_rmsd_alph: 2.021942e-08
   iter:       105 vec:         1 curr_rmsd_alph: 1.679440e-08
   iter:       106 vec:         1 curr_rmsd_alph: 1.394968e-08
   iter:       107 vec:         1 curr_rmsd_alph: 1.158692e-08
  Operator: dipole / component: 2 / origin: zero (0, 0, 0)
   iter:         1 vec:         2 curr_rmsd_alph: 1.104480e+01
   iter:         2 vec:         2 curr_rmsd_alph: 2.346782e+00
   iter:         3 vec:         2 curr_rmsd_alph: 1.449899e+00
   iter:         4 vec:         2 curr_rmsd_alph: 1.128179e+00
   iter:         5 vec:         2 curr_rmsd_alph: 8.088651e-01
   iter:         6 vec:         2 curr_rmsd_alph: 6.375560e-01
   iter:         7 vec:         2 curr_rmsd_alph: 4.797189e-01
   iter:         8 vec:         2 curr_rmsd_alph: 3.784994e-01
   iter:         9 vec:         2 curr_rmsd_alph: 2.916431e-01
   iter:        10 vec:         2 curr_rmsd_alph: 2.306831e-01
   iter:        11 vec:         2 curr_rmsd_alph: 1.803369e-01
   iter:        12 vec:         2 curr_rmsd_alph: 1.431870e-01
   iter:        13 vec:         2 curr_rmsd_alph: 1.130702e-01
   iter:        14 vec:         2 curr_rmsd_alph: 9.016871e-02
   iter:        15 vec:         2 curr_rmsd_alph: 7.174922e-02
   iter:        16 vec:         2 curr_rmsd_alph: 5.746663e-02
   iter:        17 vec:         2 curr_rmsd_alph: 4.600459e-02
   iter:        18 vec:         2 curr_rmsd_alph: 3.699588e-02
   iter:        19 vec:         2 curr_rmsd_alph: 2.976084e-02
   iter:        20 vec:         2 curr_rmsd_alph: 2.401819e-02
   iter:        21 vec:         2 curr_rmsd_alph: 1.939638e-02
   iter:        22 vec:         2 curr_rmsd_alph: 1.570080e-02
   iter:        23 vec:         2 curr_rmsd_alph: 1.271877e-02
   iter:        24 vec:         2 curr_rmsd_alph: 1.032095e-02
   iter:        25 vec:         2 curr_rmsd_alph: 8.381097e-03
   iter:        26 vec:         2 curr_rmsd_alph: 6.814586e-03
   iter:        27 vec:         2 curr_rmsd_alph: 5.544310e-03
   iter:        28 vec:         2 curr_rmsd_alph: 4.515141e-03
   iter:        29 vec:         2 curr_rmsd_alph: 3.678934e-03
   iter:        30 vec:         2 curr_rmsd_alph: 2.999748e-03
   iter:        31 vec:         2 curr_rmsd_alph: 2.447001e-03
   iter:        32 vec:         2 curr_rmsd_alph: 1.997192e-03
   iter:        33 vec:         2 curr_rmsd_alph: 1.630638e-03
   iter:        34 vec:         2 curr_rmsd_alph: 1.331913e-03
   iter:        35 vec:         2 curr_rmsd_alph: 1.088224e-03
   iter:        36 vec:         2 curr_rmsd_alph: 8.894091e-04
   iter:        37 vec:         2 curr_rmsd_alph: 7.270879e-04
   iter:        38 vec:         2 curr_rmsd_alph: 5.945439e-04
   iter:        39 vec:         2 curr_rmsd_alph: 4.862579e-04
   iter:        40 vec:         2 curr_rmsd_alph: 3.977778e-04
   iter:        41 vec:         2 curr_rmsd_alph: 3.254529e-04
   iter:        42 vec:         2 curr_rmsd_alph: 2.663254e-04
   iter:        43 vec:         2 curr_rmsd_alph: 2.179727e-04
   iter:        44 vec:         2 curr_rmsd_alph: 1.784262e-04
   iter:        45 vec:         2 curr_rmsd_alph: 1.460746e-04
   iter:        46 vec:         2 curr_rmsd_alph: 1.196055e-04
   iter:        47 vec:         2 curr_rmsd_alph: 9.794529e-05
   iter:        48 vec:         2 curr_rmsd_alph: 8.021816e-05
   iter:        49 vec:         2 curr_rmsd_alph: 6.570759e-05
   iter:        50 vec:         2 curr_rmsd_alph: 5.382860e-05
   iter:        51 vec:         2 curr_rmsd_alph: 4.410254e-05
   iter:        52 vec:         2 curr_rmsd_alph: 3.613832e-05
   iter:        53 vec:         2 curr_rmsd_alph: 2.961594e-05
   iter:        54 vec:         2 curr_rmsd_alph: 2.427376e-05
   iter:        55 vec:         2 curr_rmsd_alph: 1.989769e-05
   iter:        56 vec:         2 curr_rmsd_alph: 1.631260e-05
   iter:        57 vec:         2 curr_rmsd_alph: 1.337515e-05
   iter:        58 vec:         2 curr_rmsd_alph: 1.096808e-05
   iter:        59 vec:         2 curr_rmsd_alph: 8.995377e-06
   iter:        60 vec:         2 curr_rmsd_alph: 7.378465e-06
   iter:        61 vec:         2 curr_rmsd_alph: 6.053010e-06
   iter:        62 vec:         2 curr_rmsd_alph: 4.966340e-06
   iter:        63 vec:         2 curr_rmsd_alph: 4.075325e-06
   iter:        64 vec:         2 curr_rmsd_alph: 3.344643e-06
   iter:        65 vec:         2 curr_rmsd_alph: 2.745364e-06
   iter:        66 vec:         2 curr_rmsd_alph: 2.253792e-06
   iter:        67 vec:         2 curr_rmsd_alph: 1.850514e-06
   iter:        68 vec:         2 curr_rmsd_alph: 1.519626e-06
   iter:        69 vec:         2 curr_rmsd_alph: 1.248096e-06
   iter:        70 vec:         2 curr_rmsd_alph: 1.025242e-06
   iter:        71 vec:         2 curr_rmsd_alph: 8.423135e-07
   iter:        72 vec:         2 curr_rmsd_alph: 6.921345e-07
   iter:        73 vec:         2 curr_rmsd_alph: 5.688235e-07
   iter:        74 vec:         2 curr_rmsd_alph: 4.675582e-07
   iter:        75 vec:         2 curr_rmsd_alph: 3.843844e-07
   iter:        76 vec:         2 curr_rmsd_alph: 3.160592e-07
   iter:        77 vec:         2 curr_rmsd_alph: 2.599229e-07
   iter:        78 vec:         2 curr_rmsd_alph: 2.137936e-07
   iter:        79 vec:         2 curr_rmsd_alph: 1.758812e-07
   iter:        80 vec:         2 curr_rmsd_alph: 1.447168e-07
   iter:        81 vec:         2 curr_rmsd_alph: 1.190953e-07
   iter:        82 vec:         2 curr_rmsd_alph: 9.802703e-08
   iter:        83 vec:         2 curr_rmsd_alph: 8.070001e-08
   iter:        84 vec:         2 curr_rmsd_alph: 6.644740e-08
   iter:        85 vec:         2 curr_rmsd_alph: 5.472168e-08
   iter:        86 vec:         2 curr_rmsd_alph: 4.507315e-08
   iter:        87 vec:         2 curr_rmsd_alph: 3.713245e-08
   iter:        88 vec:         2 curr_rmsd_alph: 3.059614e-08
   iter:        89 vec:         2 curr_rmsd_alph: 2.521488e-08
   iter:        90 vec:         2 curr_rmsd_alph: 2.078377e-08
   iter:        91 vec:         2 curr_rmsd_alph: 1.713440e-08
   iter:        92 vec:         2 curr_rmsd_alph: 1.412831e-08
   iter:        93 vec:         2 curr_rmsd_alph: 1.165167e-08
  Operator: dipole / component: 3 / origin: zero (0, 0, 0)
   iter:         1 vec:         3 curr_rmsd_alph: 1.392403e+01
   iter:         2 vec:         3 curr_rmsd_alph: 2.856287e+00
   iter:         3 vec:         3 curr_rmsd_alph: 1.769518e+00
   iter:         4 vec:         3 curr_rmsd_alph: 1.374470e+00
   iter:         5 vec:         3 curr_rmsd_alph: 9.811532e-01
   iter:         6 vec:         3 curr_rmsd_alph: 7.617385e-01
   iter:         7 vec:         3 curr_rmsd_alph: 5.698093e-01
   iter:         8 vec:         3 curr_rmsd_alph: 4.428383e-01
   iter:         9 vec:         3 curr_rmsd_alph: 3.388826e-01
   iter:        10 vec:         3 curr_rmsd_alph: 2.645901e-01
   iter:        11 vec:         3 curr_rmsd_alph: 2.053650e-01
   iter:        12 vec:         3 curr_rmsd_alph: 1.613535e-01
   iter:        13 vec:         3 curr_rmsd_alph: 1.265821e-01
   iter:        14 vec:         3 curr_rmsd_alph: 1.001471e-01
   iter:        15 vec:         3 curr_rmsd_alph: 7.928202e-02
   iter:        16 vec:         3 curr_rmsd_alph: 6.316833e-02
   iter:        17 vec:         3 curr_rmsd_alph: 5.041218e-02
   iter:        18 vec:         3 curr_rmsd_alph: 4.043798e-02
   iter:        19 vec:         3 curr_rmsd_alph: 3.250310e-02
   iter:        20 vec:         3 curr_rmsd_alph: 2.623301e-02
   iter:        21 vec:         3 curr_rmsd_alph: 2.121606e-02
   iter:        22 vec:         3 curr_rmsd_alph: 1.721530e-02
   iter:        23 vec:         3 curr_rmsd_alph: 1.399532e-02
   iter:        24 vec:         3 curr_rmsd_alph: 1.140735e-02
   iter:        25 vec:         3 curr_rmsd_alph: 9.313018e-03
   iter:        26 vec:         3 curr_rmsd_alph: 7.618674e-03
   iter:        27 vec:         3 curr_rmsd_alph: 6.240924e-03
   iter:        28 vec:         3 curr_rmsd_alph: 5.120326e-03
   iter:        29 vec:         3 curr_rmsd_alph: 4.205445e-03
   iter:        30 vec:         3 curr_rmsd_alph: 3.458150e-03
   iter:        31 vec:         3 curr_rmsd_alph: 2.846049e-03
   iter:        32 vec:         3 curr_rmsd_alph: 2.344409e-03
   iter:        33 vec:         3 curr_rmsd_alph: 1.932460e-03
   iter:        34 vec:         3 curr_rmsd_alph: 1.593988e-03
   iter:        35 vec:         3 curr_rmsd_alph: 1.315473e-03
   iter:        36 vec:         3 curr_rmsd_alph: 1.086188e-03
   iter:        37 vec:         3 curr_rmsd_alph: 8.972257e-04
   iter:        38 vec:         3 curr_rmsd_alph: 7.414327e-04
   iter:        39 vec:         3 curr_rmsd_alph: 6.128838e-04
   iter:        40 vec:         3 curr_rmsd_alph: 5.067796e-04
   iter:        41 vec:         3 curr_rmsd_alph: 4.191491e-04
   iter:        42 vec:         3 curr_rmsd_alph: 3.467559e-04
   iter:        43 vec:         3 curr_rmsd_alph: 2.869239e-04
   iter:        44 vec:         3 curr_rmsd_alph: 2.374622e-04
   iter:        45 vec:         3 curr_rmsd_alph: 1.965596e-04
   iter:        46 vec:         3 curr_rmsd_alph: 1.627284e-04
   iter:        47 vec:         3 curr_rmsd_alph: 1.347388e-04
   iter:        48 vec:         3 curr_rmsd_alph: 1.115784e-04
   iter:        49 vec:         3 curr_rmsd_alph: 9.240992e-05
   iter:        50 vec:         3 curr_rmsd_alph: 7.654320e-05
   iter:        51 vec:         3 curr_rmsd_alph: 6.340728e-05
   iter:        52 vec:         3 curr_rmsd_alph: 5.253087e-05
   iter:        53 vec:         3 curr_rmsd_alph: 4.352406e-05
   iter:        54 vec:         3 curr_rmsd_alph: 3.606468e-05
   iter:        55 vec:         3 curr_rmsd_alph: 2.988616e-05
   iter:        56 vec:         3 curr_rmsd_alph: 2.476806e-05
   iter:        57 vec:         3 curr_rmsd_alph: 2.052797e-05
   iter:        58 vec:         3 curr_rmsd_alph: 1.701496e-05
   iter:        59 vec:         3 curr_rmsd_alph: 1.410409e-05
   iter:        60 vec:         3 curr_rmsd_alph: 1.169196e-05
   iter:        61 vec:         3 curr_rmsd_alph: 9.692976e-06
   iter:        62 vec:         3 curr_rmsd_alph: 8.036242e-06
   iter:        63 vec:         3 curr_rmsd_alph: 6.663066e-06
   iter:        64 vec:         3 curr_rmsd_alph: 5.524840e-06
   iter:        65 vec:         3 curr_rmsd_alph: 4.581302e-06
   iter:        66 vec:         3 curr_rmsd_alph: 3.799102e-06
   iter:        67 vec:         3 curr_rmsd_alph: 3.150614e-06
   iter:        68 vec:         3 curr_rmsd_alph: 2.612950e-06
   iter:        69 vec:         3 curr_rmsd_alph: 2.167144e-06
   iter:        70 vec:         3 curr_rmsd_alph: 1.797483e-06
   iter:        71 vec:         3 curr_rmsd_alph: 1.490944e-06
   iter:        72 vec:         3 curr_rmsd_alph: 1.236737e-06
   iter:        73 vec:         3 curr_rmsd_alph: 1.025916e-06
   iter:        74 vec:         3 curr_rmsd_alph: 8.510689e-07
   iter:        75 vec:         3 curr_rmsd_alph: 7.060495e-07
   iter:        76 vec:         3 curr_rmsd_alph: 5.857641e-07
   iter:        77 vec:         3 curr_rmsd_alph: 4.859898e-07
   iter:        78 vec:         3 curr_rmsd_alph: 4.032254e-07
   iter:        79 vec:         3 curr_rmsd_alph: 3.345681e-07
   iter:        80 vec:         3 curr_rmsd_alph: 2.776110e-07
   iter:        81 vec:         3 curr_rmsd_alph: 2.303583e-07
   iter:        82 vec:         3 curr_rmsd_alph: 1.911551e-07
   iter:        83 vec:         3 curr_rmsd_alph: 1.586289e-07
   iter:        84 vec:         3 curr_rmsd_alph: 1.316414e-07
   iter:        85 vec:         3 curr_rmsd_alph: 1.092487e-07
   iter:        86 vec:         3 curr_rmsd_alph: 9.066791e-08
   iter:        87 vec:         3 curr_rmsd_alph: 7.524953e-08
   iter:        88 vec:         3 curr_rmsd_alph: 6.245490e-08
   iter:        89 vec:         3 curr_rmsd_alph: 5.183721e-08
   iter:        90 vec:         3 curr_rmsd_alph: 4.302576e-08
   iter:        91 vec:         3 curr_rmsd_alph: 3.571307e-08
   iter:        92 vec:         3 curr_rmsd_alph: 2.964403e-08
   iter:        93 vec:         3 curr_rmsd_alph: 2.460699e-08
   iter:        94 vec:         3 curr_rmsd_alph: 2.042633e-08
   iter:        95 vec:         3 curr_rmsd_alph: 1.695639e-08
   iter:        96 vec:         3 curr_rmsd_alph: 1.407623e-08
   iter:        97 vec:         3 curr_rmsd_alph: 1.168554e-08
  Final result:
  [   1 :     dipole          1 ,   1 :     dipole          1 ]:   156.282450168323975959
  [   1 :     dipole          1 ,   2 :     dipole          2 ]:     1.021343463022502007
  [   1 :     dipole          1 ,   3 :     dipole          3 ]:   -15.572593869639435482
  [   2 :     dipole          2 ,   1 :     dipole          1 ]:     0.321755816301806163
  [   2 :     dipole          2 ,   2 :     dipole          2 ]:   112.149649464287747946
  [   2 :     dipole          2 ,   3 :     dipole          3 ]:    25.145322579387418216
  [   3 :     dipole          3 ,   1 :     dipole          1 ]:   -14.728730509931608594
  [   3 :     dipole          3 ,   2 :     dipole          2 ]:    24.977040816485978070
  [   3 :     dipole          3 ,   3 :     dipole          3 ]:   150.461769319683696722
  time (s):           18864.4893
  Leaving ALMO-based response. Bye!
 -----------------------------------------------------------------------------
  Static polarizability
   156.282450     1.021343   -15.572594
     0.321756   112.149649    25.145323
   -14.728731    24.977041   150.461769
  Principal components
    98.578419   146.492701   173.822750
  Isotropic polarizability
   139.631290
  Orientation
     0.141154     0.766120     0.627005
    -0.873585     0.394356    -0.285187
     0.465751     0.507487    -0.724936
 >>>>>>>>>>>>>>>>>>>>>>>>>>>>>>>>>>>>>>>>>>>>>>>>>>>>>>>>>>>>>>>>>>>>>>>>>>>>>
Archival summary:
1\1\smp-n2.sam.pitt.edu\JobtypUnspecified\HF\BasisUnspecified\r1221112(1-,1)\erb74\TueNov2217:57:522016TueNov2217:57:522016\0\\#,JobtypUnspecified,HF,BasisUnspecified,\\-1,1\Br\H,1,4.12803\C,2,1.08976,1,118.717\H,3,1.0887,2,107.335,1,-83.6549,0\C,3,1.51698,2,109.637,1,35.9438,0\C,5,1.3455,3,126.86,2,-140.43,0\H,6,1.08198,5,129.849,3,0.483907,0\N,6,1.39861,5,110.039,3,179.84,0\H,8,1.01911,6,125.297,5,173.946,0\C,8,1.39605,6,108.393,5,1.44645,0\C,10,1.4003,8,107.254,6,-1.36889,0\C,10,1.40262,8,130.511,6,179.445,0\H,12,1.08166,10,120.966,8,-1.04858,0\C,12,1.37034,10,117.468,8,179.02,0\H,14,1.08272,12,119.697,10,179.904,0\C,11,1.40529,10,118.89,8,-178.955,0\H,16,1.08274,11,120.505,10,179.654,0\C,16,1.37066,11,119.105,10,-0.309643,0\H,18,1.08181,16,119.998,11,-179.926,0\C,3,1.55855,2,107.968,1,159.502,0\H,20,1.09384,3,109.043,2,-67.9336,0\N,20,1.4913,3,109.66,2,55.9186,0\H,22,1.03059,20,108.829,3,-41.5358,0\H,22,1.03164,20,108.425,3,-155.537,0\C,20,1.56668,3,110.189,2,173.108,0\O,25,1.21573,20,124.499,3,85.8191,0\O,25,1.38484,20,113.859,3,-92.8214,0\H,27,0.990861,25,103.198,20,-8.67349,0\\HF=-3253.81031\\@

 Total job time:  19322.64s(wall), 23923.99s(cpu)
 Tue Nov 22 17:57:52 2016

        *************************************************************
        *                                                           *
        *  Thank you very much for using Q-Chem.  Have a nice day.  *
        *                                                           *
        *************************************************************
